[Molden Format]
[Atoms] Angs
 C     1  6    -0.848208     0.000373    -1.321243
 C     2  6    -0.848208     0.000373     0.076443
 C     3  6     0.385399     0.000373     0.759482
 C     4  6     1.569980     0.000103     0.017652
 C     5  6     1.556922     0.000132    -1.376044
 C     6  6     0.339943     0.000327    -2.049866
 C     7  6    -2.153870    -0.000248     0.834067
 H     8  1     2.490542    -0.000059    -1.927503
 H     9  1     2.519857     0.000003     0.543147
 H    10  1     0.311819     0.000313    -3.133823
 C    11  6     0.436220    -0.000682     2.268125
 H    12  1    -1.797703     0.000535    -1.847417
 H    13  1    -3.003609    -0.001745     0.149014
 H    14  1    -2.244965    -0.879004     1.481378
 H    15  1    -2.246884     0.879306     1.480003
 H    16  1     1.467795     0.000315     2.624808
 H    17  1    -0.064540     0.877062     2.690311
 H    18  1    -0.061386    -0.881238     2.688389
[FREQ]
  126.3717
  161.9864
  173.6319
  256.4717
  299.6704
  411.0724
  447.6770
  510.6406
  521.5879
  590.2199
  725.4714
  745.3334
  754.7789
  835.5630
  877.3313
  949.7288
  994.6505
 1003.2488
 1010.6996
 1045.6160
 1070.5262
 1072.2889
 1142.8942
 1184.3873
 1203.4400
 1241.2754
 1315.5467
 1326.7494
 1413.7293
 1423.8578
 1465.9813
 1480.5316
 1494.9727
 1495.4387
 1502.3508
 1521.7787
 1616.7073
 1645.7092
 3017.0368
 3017.6396
 3059.1355
 3061.2397
 3100.7106
 3102.0878
 3152.4546
 3156.8967
 3170.9950
 3185.7876
[INT]
    0.0000
    0.8706
    0.0000
    5.0639
    0.1350
    0.1689
    4.6524
    0.9009
    0.0000
    0.4407
    0.0000
    0.0599
   64.8833
    0.3151
    0.0000
    0.3679
    0.0000
    4.8298
    1.2245
    4.5304
    0.0009
    8.4877
    3.4518
    0.0001
    0.1422
    1.5594
    0.1099
    0.0184
    1.0104
    2.3250
    0.3956
    0.0001
   18.0445
    0.3875
   21.5626
   15.9726
    0.3042
    3.6610
    9.0877
   54.3319
   38.2189
    0.0097
   37.4147
    2.5087
   14.0088
    2.6084
   28.7427
   19.9959
[FR-COORD]
 C    -1.602881     0.000705    -2.496787
 C    -1.602881     0.000705     0.144456
 C     0.728299     0.000705     1.435213
 C     2.966832     0.000195     0.033357
 C     2.942156     0.000249    -2.600346
 C     0.642399     0.000618    -3.873685
 C    -4.070224    -0.000469     1.576158
 H     4.706442    -0.000111    -3.642453
 H     4.761839     0.000006     1.026399
 H     0.589252     0.000591    -5.922067
 C     0.824336    -0.001289     4.286135
 H    -3.397166     0.001011    -3.491112
 H    -5.675998    -0.003298     0.281596
 H    -4.242369    -1.661077     2.799399
 H    -4.245995     1.661647     2.796800
 H     2.773730     0.000595     4.960168
 H    -0.121963     1.657407     5.083951
 H    -0.116003    -1.665298     5.080319
[FR-NORM-COORD]
vibration     1
    0.000000     0.000000    -0.010000
    0.000000     0.000000     0.000000
    0.000000     0.000000     0.000000
    0.000000     0.000000     0.010000
    0.000000     0.000000     0.010000
    0.000000     0.000000    -0.010000
    0.000000     0.000000     0.050000
    0.000000     0.000000     0.020000
    0.000000     0.000000     0.020000
    0.000000     0.000000    -0.020000
    0.000000     0.000000    -0.050000
    0.000000     0.000000    -0.020000
    0.000000     0.000000    -0.320000
    0.210000    -0.270000     0.280000
   -0.210000     0.280000     0.270000
    0.000000     0.000000     0.320000
    0.210000     0.270000    -0.280000
   -0.210000    -0.270000    -0.270000
vibration     2
    0.000000     0.000000    -0.020000
    0.000000     0.000000    -0.040000
    0.000000     0.000000    -0.040000
    0.000000     0.000000    -0.020000
    0.000000     0.000000     0.030000
    0.000000     0.000000     0.040000
    0.000000     0.000000     0.010000
    0.000000     0.000000     0.070000
    0.000000     0.000000    -0.030000
    0.000000     0.000000     0.070000
    0.000000     0.000000     0.010000
    0.000000     0.000000    -0.030000
    0.000000     0.000000    -0.370000
    0.210000    -0.280000     0.230000
   -0.210000     0.280000     0.230000
    0.000000     0.000000    -0.370000
   -0.210000    -0.280000     0.230000
    0.220000     0.280000     0.230000
vibration     3
    0.000000     0.000000    -0.160000
    0.000000     0.000000    -0.010000
    0.000000     0.000000     0.010000
    0.000000     0.000000     0.160000
    0.000000     0.000000     0.130000
    0.000000     0.000000    -0.130000
    0.000000     0.000000     0.170000
    0.000000     0.000000     0.240000
    0.000000     0.000000     0.270000
    0.000000     0.000000    -0.240000
    0.000000     0.000000    -0.170000
    0.000000     0.000000    -0.270000
    0.000000     0.000000     0.410000
    0.030000     0.200000     0.140000
   -0.030000    -0.200000     0.140000
    0.000000     0.000000    -0.410000
    0.030000    -0.200000    -0.140000
   -0.030000     0.200000    -0.140000
vibration     4
    0.000000     0.000000     0.120000
    0.000000     0.000000     0.180000
    0.000000     0.000000     0.180000
    0.000000     0.000000     0.120000
    0.000000     0.000000    -0.120000
    0.000000     0.000000    -0.120000
    0.000000     0.000000    -0.110000
    0.000000     0.000000    -0.320000
    0.000000     0.000000     0.110000
    0.000000     0.000000    -0.320000
    0.000000     0.000000    -0.110000
    0.000000     0.000000     0.110000
    0.000000     0.000000    -0.390000
   -0.100000    -0.240000    -0.110000
    0.100000     0.240000    -0.110000
    0.000000     0.000000    -0.390000
    0.100000    -0.240000    -0.110000
   -0.100000     0.240000    -0.110000
vibration     5
    0.030000    -0.030000     0.000000
    0.050000     0.010000     0.000000
    0.050000    -0.010000     0.000000
    0.030000     0.030000     0.000000
    0.020000     0.000000     0.000000
    0.020000     0.000000     0.000000
   -0.080000     0.240000     0.000000
    0.030000    -0.010000     0.000000
    0.030000     0.030000     0.000000
    0.030000     0.010000     0.000000
   -0.080000    -0.240000     0.000000
    0.030000    -0.030000     0.000000
   -0.320000     0.200000     0.000000
   -0.030000     0.380000     0.000000
   -0.030000     0.380000     0.000000
   -0.320000    -0.200000     0.000000
   -0.030000    -0.380000     0.000000
   -0.030000    -0.380000     0.000000
vibration     6
   -0.100000     0.050000     0.000000
   -0.010000     0.160000     0.000000
    0.010000     0.160000     0.000000
    0.100000     0.050000     0.000000
    0.040000    -0.100000     0.000000
   -0.040000    -0.100000     0.000000
    0.140000    -0.060000     0.000000
    0.090000    -0.190000     0.000000
    0.250000     0.050000     0.000000
   -0.090000    -0.190000     0.000000
   -0.140000    -0.060000     0.000000
   -0.250000     0.050000     0.000000
    0.440000    -0.010000     0.000000
    0.080000    -0.240000     0.000000
    0.080000    -0.240000     0.000000
   -0.440000    -0.010000     0.000000
   -0.080000    -0.240000     0.000000
   -0.080000    -0.240000     0.000000
vibration     7
    0.000000     0.000000     0.200000
    0.000000     0.000000    -0.180000
    0.000000     0.000000    -0.180000
    0.000000     0.000000     0.200000
    0.000000     0.000000    -0.090000
    0.000000     0.000000    -0.090000
    0.000000     0.000000     0.010000
    0.000000     0.000000    -0.130000
    0.000000     0.000000     0.570000
    0.000000     0.000000    -0.130000
    0.000000     0.000000     0.010000
    0.000000     0.000000     0.570000
    0.000000     0.000000     0.090000
    0.140000     0.090000     0.080000
   -0.140000    -0.090000     0.080000
    0.000000     0.000000     0.090000
   -0.130000     0.090000     0.080000
    0.140000    -0.090000     0.080000
vibration     8
   -0.140000     0.100000     0.000000
   -0.170000    -0.020000     0.000000
    0.170000    -0.020000     0.000000
    0.140000     0.100000     0.000000
    0.140000     0.140000     0.000000
   -0.140000     0.140000     0.000000
   -0.200000    -0.160000     0.000000
    0.210000     0.010000     0.000000
    0.000000     0.100000     0.000000
   -0.210000     0.010000     0.000000
    0.200000    -0.160000     0.000000
    0.000000     0.100000     0.000000
   -0.020000    -0.130000     0.000000
   -0.240000    -0.280000     0.000000
   -0.240000    -0.280000     0.000000
    0.020000    -0.130000     0.000000
    0.240000    -0.280000     0.000000
    0.240000    -0.280000     0.000000
vibration     9
    0.000000     0.000000     0.090000
    0.000000     0.000000     0.210000
    0.000000     0.000000    -0.210000
    0.000000     0.000000    -0.090000
    0.000000     0.000000     0.210000
    0.000000     0.000000    -0.210000
    0.000000     0.000000    -0.010000
    0.000000     0.000000     0.480000
    0.000000     0.000000    -0.080000
    0.000000     0.000000    -0.480000
    0.000000     0.000000     0.010000
    0.000000     0.000000     0.080000
    0.000000     0.000000    -0.170000
   -0.200000    -0.150000    -0.110000
    0.200000     0.150000    -0.110000
    0.000000     0.000000     0.170000
   -0.200000     0.150000     0.110000
    0.200000    -0.150000     0.110000
vibration    10
    0.090000     0.220000     0.000000
   -0.120000     0.000000     0.000000
   -0.120000     0.000000     0.000000
    0.090000    -0.220000     0.000000
    0.280000    -0.010000     0.000000
    0.280000     0.010000     0.000000
   -0.220000    -0.070000     0.000000
    0.170000     0.180000     0.000000
    0.130000    -0.220000     0.000000
    0.170000    -0.180000     0.000000
   -0.220000     0.070000     0.000000
    0.130000     0.220000     0.000000
   -0.270000    -0.080000     0.000000
   -0.210000    -0.040000     0.000000
   -0.210000    -0.040000     0.000000
   -0.270000     0.080000     0.000000
   -0.210000     0.040000     0.000000
   -0.210000     0.040000     0.000000
vibration    11
    0.000000     0.000000     0.150000
    0.000000     0.000000    -0.230000
    0.000000     0.000000     0.230000
    0.000000     0.000000    -0.150000
    0.000000     0.000000     0.170000
    0.000000     0.000000    -0.170000
    0.000000     0.000000    -0.040000
    0.000000     0.000000     0.240000
    0.000000     0.000000    -0.410000
    0.000000     0.000000    -0.240000
    0.000000     0.000000     0.040000
    0.000000     0.000000     0.410000
    0.000000     0.000000     0.110000
    0.230000     0.140000     0.090000
   -0.230000    -0.140000     0.090000
    0.000000     0.000000    -0.110000
    0.230000    -0.140000    -0.090000
   -0.230000     0.140000    -0.090000
vibration    12
   -0.100000     0.270000     0.000000
   -0.080000     0.110000     0.000000
   -0.080000    -0.110000     0.000000
   -0.100000    -0.270000     0.000000
   -0.010000    -0.020000     0.000000
   -0.010000     0.020000     0.000000
    0.170000     0.130000     0.000000
   -0.130000     0.180000     0.000000
   -0.210000    -0.280000     0.000000
   -0.130000    -0.180000     0.000000
    0.170000    -0.130000     0.000000
   -0.210000     0.280000     0.000000
    0.320000     0.160000     0.000000
    0.150000     0.060000     0.000000
    0.150000     0.060000     0.000000
    0.320000    -0.160000     0.000000
    0.150000    -0.060000     0.000000
    0.150000    -0.060000     0.000000
vibration    13
    0.000000     0.000000     0.040000
    0.000000     0.000000    -0.030000
    0.000000     0.000000    -0.030000
    0.000000     0.000000     0.040000
    0.000000     0.000000     0.070000
    0.000000     0.000000     0.070000
    0.000000     0.000000    -0.010000
    0.000000     0.000000    -0.580000
    0.000000     0.000000    -0.370000
    0.000000     0.000000    -0.580000
    0.000000     0.000000    -0.010000
    0.000000     0.000000    -0.370000
    0.000000     0.000000     0.060000
    0.070000     0.050000     0.030000
   -0.070000    -0.050000     0.030000
    0.000000     0.000000     0.060000
   -0.070000     0.050000     0.030000
    0.070000    -0.050000     0.030000
vibration    14
   -0.100000    -0.090000     0.000000
    0.000000    -0.110000     0.000000
    0.000000    -0.110000     0.000000
    0.100000    -0.090000     0.000000
    0.250000     0.130000     0.000000
   -0.250000     0.130000     0.000000
    0.170000     0.050000     0.000000
    0.360000    -0.070000     0.000000
   -0.110000    -0.090000     0.000000
   -0.360000    -0.070000     0.000000
   -0.170000     0.050000     0.000000
    0.110000    -0.090000     0.000000
   -0.030000     0.020000     0.000000
    0.230000     0.220000    -0.010000
    0.220000     0.220000     0.010000
    0.030000     0.020000     0.000000
   -0.230000     0.220000    -0.010000
   -0.220000     0.220000     0.010000
vibration    15
    0.000000     0.000000     0.090000
    0.000000     0.000000    -0.010000
    0.000000     0.000000     0.010000
    0.000000     0.000000    -0.090000
    0.000000     0.000000    -0.050000
    0.000000     0.000000     0.050000
    0.000000     0.000000    -0.020000
    0.000000     0.000000     0.340000
    0.000000     0.000000     0.590000
    0.000000     0.000000    -0.340000
    0.000000     0.000000     0.020000
    0.000000     0.000000    -0.590000
    0.000000     0.000000     0.050000
    0.080000     0.040000     0.030000
   -0.080000    -0.040000     0.030000
    0.000000     0.000000    -0.050000
    0.080000    -0.040000    -0.030000
   -0.080000     0.040000    -0.030000
vibration    16
    0.000000     0.000000     0.100000
    0.000000     0.000000     0.000000
    0.000000     0.000000     0.000000
    0.000000     0.000000     0.100000
    0.000000     0.000000    -0.070000
    0.000000     0.000000    -0.070000
    0.000000     0.000000    -0.030000
    0.000000     0.000000     0.390000
    0.000000     0.000000    -0.530000
    0.000000     0.000000     0.390000
    0.000000     0.000000    -0.030000
    0.000000     0.000000    -0.530000
    0.000000     0.000000     0.080000
    0.130000     0.060000     0.040000
   -0.130000    -0.060000     0.040000
    0.000000     0.000000     0.080000
   -0.130000     0.060000     0.050000
    0.130000    -0.060000     0.040000
vibration    17
    0.000000     0.000000    -0.050000
    0.000000     0.000000    -0.010000
    0.000000     0.000000     0.010000
    0.000000     0.000000     0.050000
    0.000000     0.000000    -0.100000
    0.000000     0.000000     0.100000
    0.000000     0.000000     0.000000
    0.000000     0.000000     0.600000
    0.000000     0.000000    -0.350000
    0.000000     0.000000    -0.600000
    0.000000     0.000000     0.000000
    0.000000     0.000000     0.350000
    0.000000     0.000000    -0.020000
   -0.020000     0.000000    -0.010000
    0.020000     0.000000    -0.010000
    0.000000     0.000000     0.020000
   -0.020000     0.000000     0.010000
    0.020000     0.000000     0.010000
vibration    18
    0.010000    -0.050000     0.000000
   -0.010000     0.050000     0.000000
   -0.010000    -0.050000     0.000000
    0.010000     0.050000     0.000000
    0.040000     0.040000     0.000000
    0.040000    -0.040000     0.000000
   -0.050000     0.090000     0.000000
    0.050000     0.040000     0.000000
   -0.050000     0.060000     0.000000
    0.050000    -0.040000     0.000000
   -0.050000    -0.090000     0.000000
   -0.050000    -0.060000     0.000000
    0.480000     0.180000     0.000000
   -0.130000    -0.290000     0.050000
   -0.130000    -0.290000    -0.050000
    0.480000    -0.180000     0.000000
   -0.130000     0.290000    -0.050000
   -0.130000     0.290000     0.050000
vibration    19
   -0.010000     0.130000     0.000000
    0.010000    -0.020000     0.000000
   -0.010000    -0.020000     0.000000
    0.020000     0.130000     0.000000
   -0.010000    -0.050000     0.000000
    0.010000    -0.050000     0.000000
    0.040000    -0.090000     0.000000
    0.070000    -0.190000     0.000000
    0.090000     0.140000     0.000000
   -0.070000    -0.190000     0.000000
   -0.040000    -0.090000     0.000000
   -0.090000     0.140000     0.000000
   -0.450000    -0.170000     0.000000
    0.110000     0.270000    -0.040000
    0.110000     0.270000     0.040000
    0.450000    -0.170000     0.000000
   -0.110000     0.270000    -0.040000
   -0.110000     0.270000     0.040000
vibration    20
    0.000000     0.000000    -0.040000
    0.000000     0.000000     0.080000
    0.000000     0.000000     0.080000
    0.000000     0.000000    -0.040000
    0.000000     0.000000     0.010000
    0.000000     0.000000     0.010000
    0.000000     0.000000    -0.100000
    0.000000     0.000000    -0.040000
    0.000000     0.000000     0.220000
    0.000000     0.000000    -0.040000
    0.000000     0.000000    -0.100000
    0.000000     0.000000     0.220000
    0.000000     0.000000     0.220000
    0.380000     0.170000     0.130000
   -0.380000    -0.170000     0.130000
    0.000000     0.000000     0.220000
   -0.380000     0.170000     0.130000
    0.380000    -0.170000     0.120000
vibration    21
    0.000000     0.000000    -0.030000
    0.000000     0.000000     0.120000
    0.000000     0.000000    -0.120000
    0.000000     0.000000     0.030000
    0.000000     0.000000     0.000000
    0.000000     0.000000     0.000000
    0.000000     0.000000    -0.110000
    0.000000     0.000000    -0.020000
    0.000000     0.000000    -0.100000
    0.000000     0.000000     0.020000
    0.000000     0.000000     0.110000
    0.000000     0.000000     0.100000
    0.000000     0.000000     0.240000
    0.400000     0.170000     0.130000
   -0.400000    -0.170000     0.130000
    0.000000     0.000000    -0.240000
    0.400000    -0.170000    -0.130000
   -0.400000     0.170000    -0.130000
vibration    22
    0.100000     0.080000     0.000000
    0.030000     0.010000     0.000000
    0.030000    -0.010000     0.000000
    0.100000    -0.080000     0.000000
   -0.120000    -0.120000     0.000000
   -0.120000     0.120000     0.000000
   -0.050000     0.020000     0.000000
   -0.010000    -0.340000     0.000000
    0.520000    -0.090000     0.000000
   -0.010000     0.340000     0.000000
   -0.050000    -0.020000     0.000000
    0.520000     0.090000     0.000000
    0.130000     0.050000     0.000000
   -0.070000    -0.110000     0.020000
   -0.060000    -0.110000    -0.020000
    0.130000    -0.050000     0.000000
   -0.070000     0.110000    -0.020000
   -0.060000     0.110000     0.020000
vibration    23
   -0.050000    -0.110000     0.000000
    0.030000     0.100000     0.000000
   -0.030000     0.100000     0.000000
    0.050000    -0.110000     0.000000
    0.000000     0.050000     0.000000
    0.000000     0.050000     0.000000
    0.000000    -0.070000     0.000000
   -0.200000     0.380000     0.000000
    0.390000    -0.110000     0.000000
    0.200000     0.380000     0.000000
    0.000000    -0.070000     0.000000
   -0.390000    -0.110000     0.000000
   -0.280000    -0.120000     0.000000
    0.000000     0.100000    -0.040000
    0.000000     0.100000     0.040000
    0.280000    -0.120000     0.000000
    0.000000     0.100000    -0.040000
    0.000000     0.100000     0.040000
vibration    24
    0.030000     0.000000     0.000000
    0.010000     0.000000     0.000000
    0.010000     0.000000     0.000000
    0.030000     0.000000     0.000000
   -0.030000     0.050000     0.000000
   -0.030000    -0.050000     0.000000
    0.000000     0.000000     0.000000
   -0.320000     0.540000     0.000000
    0.310000     0.000000     0.000000
   -0.320000    -0.540000     0.000000
    0.000000     0.000000     0.000000
    0.310000     0.000000     0.000000
    0.000000     0.000000     0.000000
    0.000000     0.000000     0.000000
    0.000000     0.000000     0.000000
    0.000000     0.000000     0.000000
    0.000000     0.000000     0.000000
    0.000000     0.000000     0.000000
vibration    25
    0.100000    -0.050000     0.000000
    0.150000     0.140000     0.000000
   -0.150000     0.140000     0.000000
   -0.100000    -0.050000     0.000000
    0.100000     0.000000     0.000000
   -0.100000     0.000000     0.000000
   -0.060000    -0.050000     0.000000
    0.300000    -0.340000     0.000000
   -0.380000    -0.040000     0.000000
   -0.300000    -0.340000     0.000000
    0.060000    -0.050000     0.000000
    0.370000    -0.040000     0.000000
   -0.200000    -0.080000     0.000000
   -0.110000    -0.050000    -0.030000
   -0.110000    -0.050000     0.030000
    0.200000    -0.080000     0.000000
    0.110000    -0.050000    -0.030000
    0.110000    -0.050000     0.030000
vibration    26
    0.020000     0.080000     0.000000
    0.220000     0.080000     0.000000
    0.220000    -0.080000     0.000000
    0.020000    -0.080000     0.000000
   -0.060000     0.000000     0.000000
   -0.060000     0.000000     0.000000
   -0.090000    -0.040000     0.000000
   -0.150000     0.130000     0.000000
   -0.550000    -0.090000     0.000000
   -0.150000    -0.130000     0.000000
   -0.090000     0.040000     0.000000
   -0.550000     0.090000     0.000000
   -0.130000    -0.060000     0.000000
   -0.100000    -0.120000     0.010000
   -0.100000    -0.120000    -0.010000
   -0.130000     0.060000     0.000000
   -0.100000     0.120000    -0.010000
   -0.100000     0.120000     0.010000
vibration    27
   -0.030000    -0.030000     0.000000
   -0.100000     0.070000     0.000000
    0.100000     0.070000     0.000000
    0.030000    -0.030000     0.000000
   -0.010000    -0.040000     0.000000
    0.010000    -0.040000     0.000000
    0.030000    -0.030000     0.000000
   -0.150000     0.180000     0.000000
   -0.610000    -0.030000     0.000000
    0.150000     0.180000     0.000000
   -0.030000    -0.030000     0.000000
    0.610000    -0.030000     0.000000
   -0.020000    -0.030000     0.000000
    0.030000     0.140000    -0.040000
    0.030000     0.140000     0.040000
    0.020000    -0.030000     0.000000
   -0.030000     0.140000    -0.040000
   -0.030000     0.140000     0.040000
vibration    28
    0.250000    -0.010000     0.000000
   -0.150000     0.280000     0.000000
   -0.150000    -0.280000     0.000000
    0.250000     0.010000     0.000000
   -0.120000     0.220000     0.000000
   -0.120000    -0.220000     0.000000
    0.040000    -0.050000     0.000000
    0.170000    -0.270000     0.000000
   -0.140000     0.010000     0.000000
    0.170000     0.270000     0.000000
    0.040000     0.050000     0.000000
   -0.140000    -0.010000     0.000000
   -0.220000    -0.090000     0.000000
   -0.050000     0.170000    -0.120000
   -0.050000     0.170000     0.120000
   -0.220000     0.090000     0.000000
   -0.050000    -0.170000     0.120000
   -0.050000    -0.170000    -0.120000
vibration    29
   -0.010000     0.010000     0.000000
   -0.020000    -0.010000     0.000000
    0.020000    -0.010000     0.000000
    0.010000     0.010000     0.000000
    0.000000    -0.010000     0.000000
    0.000000    -0.010000     0.000000
    0.090000     0.050000     0.000000
   -0.020000     0.030000     0.000000
   -0.040000     0.010000     0.000000
    0.020000     0.030000     0.000000
   -0.090000     0.050000     0.000000
    0.040000     0.010000     0.000000
   -0.360000    -0.040000     0.000000
   -0.310000    -0.220000    -0.190000
   -0.310000    -0.220000     0.190000
    0.360000    -0.040000     0.000000
    0.300000    -0.220000    -0.190000
    0.310000    -0.220000     0.190000
vibration    30
   -0.010000     0.000000     0.000000
   -0.010000    -0.010000     0.000000
   -0.010000     0.010000     0.000000
   -0.010000     0.000000     0.000000
    0.010000    -0.010000     0.000000
    0.010000     0.010000     0.000000
    0.090000     0.040000     0.000000
    0.000000     0.010000     0.000000
    0.030000     0.000000     0.000000
    0.000000    -0.010000     0.000000
    0.090000    -0.050000     0.000000
    0.030000     0.000000     0.000000
   -0.340000    -0.040000     0.000000
   -0.320000    -0.220000    -0.190000
   -0.320000    -0.220000     0.190000
   -0.340000     0.040000     0.000000
   -0.320000     0.220000     0.190000
   -0.320000     0.220000    -0.190000
vibration    31
    0.030000    -0.060000     0.000000
   -0.080000     0.020000     0.000000
    0.080000     0.020000     0.000000
   -0.030000    -0.060000     0.000000
   -0.080000     0.070000     0.000000
    0.080000     0.070000     0.000000
    0.030000    -0.030000     0.000000
    0.180000    -0.380000     0.000000
    0.150000    -0.070000     0.000000
   -0.180000    -0.380000     0.000000
   -0.030000    -0.030000     0.000000
   -0.150000    -0.070000     0.000000
    0.200000     0.010000     0.000000
   -0.170000     0.220000    -0.190000
   -0.170000     0.220000     0.190000
   -0.200000     0.010000     0.000000
    0.170000     0.220000    -0.190000
    0.170000     0.220000     0.190000
vibration    32
    0.000000     0.000000     0.000000
    0.000000     0.000000     0.010000
    0.000000     0.000000    -0.010000
    0.000000     0.000000     0.000000
    0.000000     0.000000     0.000000
    0.000000     0.000000     0.000000
    0.000000     0.000000     0.040000
    0.000000     0.000000     0.000000
    0.000000     0.000000     0.010000
    0.000000     0.000000     0.000000
    0.000000     0.000000    -0.040000
    0.000000     0.000000    -0.010000
    0.000000     0.000000    -0.500000
    0.050000     0.340000    -0.040000
   -0.050000    -0.340000    -0.040000
    0.000000     0.000000     0.500000
    0.050000    -0.340000     0.040000
   -0.050000     0.340000     0.040000
vibration    33
    0.000000     0.000000     0.000000
    0.000000     0.000000    -0.010000
    0.000000     0.000000    -0.010000
    0.000000     0.000000     0.000000
    0.000000     0.000000     0.000000
    0.000000     0.000000     0.000000
    0.000000     0.000000    -0.040000
    0.000000     0.000000     0.000000
    0.010000     0.000000     0.000000
    0.000000     0.000000     0.000000
    0.000000     0.000000    -0.040000
    0.010000     0.000000     0.000000
    0.020000     0.000000     0.500000
   -0.070000    -0.330000     0.020000
    0.030000     0.360000     0.050000
    0.030000     0.000000     0.500000
    0.030000    -0.370000     0.050000
   -0.070000     0.320000     0.020000
vibration    34
   -0.050000    -0.010000     0.000000
    0.040000     0.040000     0.000000
    0.040000    -0.040000     0.000000
   -0.050000     0.010000     0.000000
    0.020000    -0.010000     0.000000
    0.020000     0.010000     0.000000
    0.000000    -0.050000     0.000000
    0.020000    -0.010000     0.000000
    0.120000     0.010000     0.000000
    0.020000     0.010000     0.000000
    0.000000     0.050000     0.000000
    0.120000    -0.010000     0.000000
    0.310000     0.020000    -0.040000
   -0.240000     0.290000    -0.250000
   -0.250000     0.240000     0.240000
    0.310000    -0.020000    -0.040000
   -0.250000    -0.240000     0.240000
   -0.240000    -0.290000    -0.240000
vibration    35
    0.010000     0.050000     0.000000
    0.060000    -0.030000     0.000000
   -0.060000    -0.030000     0.000000
   -0.010000     0.050000     0.000000
    0.070000    -0.050000     0.000000
   -0.070000    -0.050000     0.000000
   -0.010000    -0.030000     0.000000
   -0.110000     0.270000     0.000000
    0.020000     0.060000     0.000000
    0.110000     0.270000     0.000000
    0.010000    -0.030000     0.000000
   -0.020000     0.060000     0.000000
    0.330000     0.040000     0.000000
   -0.240000     0.200000    -0.220000
   -0.240000     0.200000     0.210000
   -0.330000     0.040000     0.000000
    0.240000     0.200000    -0.220000
    0.240000     0.210000     0.210000
vibration    36
    0.150000     0.000000     0.000000
   -0.070000    -0.130000     0.000000
   -0.070000     0.130000     0.000000
    0.150000     0.000000     0.000000
   -0.040000    -0.080000     0.000000
   -0.040000     0.080000     0.000000
    0.020000     0.010000     0.000000
   -0.190000     0.150000     0.000000
   -0.510000     0.010000     0.000000
   -0.190000    -0.150000     0.000000
    0.020000    -0.010000     0.000000
   -0.510000    -0.010000     0.000000
    0.240000     0.050000     0.000000
   -0.110000     0.110000    -0.110000
   -0.110000     0.110000     0.110000
    0.240000    -0.050000     0.000000
   -0.110000    -0.110000     0.110000
   -0.110000    -0.110000    -0.110000
vibration    37
   -0.010000     0.150000     0.000000
    0.070000    -0.260000     0.000000
    0.070000     0.260000     0.000000
   -0.010000    -0.150000     0.000000
   -0.080000     0.330000     0.000000
   -0.080000    -0.330000     0.000000
    0.000000     0.020000     0.000000
    0.300000    -0.300000     0.000000
    0.080000    -0.160000     0.000000
    0.300000     0.300000     0.000000
    0.000000    -0.020000     0.000000
    0.080000     0.160000     0.000000
    0.200000     0.060000     0.000000
   -0.110000     0.010000    -0.070000
   -0.110000     0.010000     0.070000
    0.200000    -0.060000     0.000000
   -0.110000    -0.010000     0.070000
   -0.110000    -0.010000    -0.070000
vibration    38
    0.330000     0.010000     0.000000
   -0.240000     0.050000     0.000000
    0.240000     0.050000     0.000000
   -0.330000     0.010000     0.000000
    0.190000    -0.080000     0.000000
   -0.190000    -0.080000     0.000000
    0.030000     0.000000     0.000000
    0.020000     0.240000     0.000000
    0.420000     0.010000     0.000000
   -0.020000     0.240000     0.000000
   -0.030000     0.000000     0.000000
   -0.420000     0.010000     0.000000
   -0.130000    -0.030000     0.000000
    0.100000    -0.020000     0.060000
    0.100000    -0.020000    -0.060000