 Entering Gaussian System, Link 0=/usr/local/g03/g03
 Initial command:
 /usr/local/g03/l1.exe /scratch/chaquin/31673.calcul.lct.jussieu.fr/Gau-16169.inp -scrdir=/scratch/chaquin/31673.calcul.lct.jussieu.fr/
 Entering Link 1 = /usr/local/g03/l1.exe PID=     16501.
  
 Copyright (c) 1988,1990,1992,1993,1995,1998,2003,2004, Gaussian, Inc.
                  All Rights Reserved.
  
 This is the Gaussian(R) 03 program.  It is based on the
 the Gaussian(R) 98 system (copyright 1998, Gaussian, Inc.),
 the Gaussian(R) 94 system (copyright 1995, Gaussian, Inc.),
 the Gaussian 92(TM) system (copyright 1992, Gaussian, Inc.),
 the Gaussian 90(TM) system (copyright 1990, Gaussian, Inc.),
 the Gaussian 88(TM) system (copyright 1988, Gaussian, Inc.),
 the Gaussian 86(TM) system (copyright 1986, Carnegie Mellon
 University), and the Gaussian 82(TM) system (copyright 1983,
 Carnegie Mellon University). Gaussian is a federally registered
 trademark of Gaussian, Inc.
  
 This software contains proprietary and confidential information,
 including trade secrets, belonging to Gaussian, Inc.
  
 This software is provided under written license and may be
 used, copied, transmitted, or stored only in accord with that
 written license.
  
 The following legend is applicable only to US Government
 contracts under FAR:
  
                    RESTRICTED RIGHTS LEGEND
  
 Use, reproduction and disclosure by the US Government is
 subject to restrictions as set forth in subparagraphs (a)
 and (c) of the Commercial Computer Software - Restricted
 Rights clause in FAR 52.227-19.
  
 Gaussian, Inc.
 340 Quinnipiac St., Bldg. 40, Wallingford CT 06492
  
  
 ---------------------------------------------------------------
 Warning -- This program may not be used in any manner that
 competes with the business of Gaussian, Inc. or will provide
 assistance to any competitor of Gaussian, Inc.  The licensee
 of this program is prohibited from giving any competitor of
 Gaussian, Inc. access to this program.  By using this program,
 the user acknowledges that Gaussian, Inc. is engaged in the
 business of creating and licensing software in the field of
 computational chemistry and represents and warrants to the
 licensee that it is not a competitor of Gaussian, Inc. and that
 it will not use this program in any manner prohibited above.
 ---------------------------------------------------------------
  

 Cite this work as:
 Gaussian 03, Revision C.02,
 M. J. Frisch, G. W. Trucks, H. B. Schlegel, G. E. Scuseria, 
 M. A. Robb, J. R. Cheeseman, J. A. Montgomery, Jr., T. Vreven, 
 K. N. Kudin, J. C. Burant, J. M. Millam, S. S. Iyengar, J. Tomasi, 
 V. Barone, B. Mennucci, M. Cossi, G. Scalmani, N. Rega, 
 G. A. Petersson, H. Nakatsuji, M. Hada, M. Ehara, K. Toyota, 
 R. Fukuda, J. Hasegawa, M. Ishida, T. Nakajima, Y. Honda, O. Kitao, 
 H. Nakai, M. Klene, X. Li, J. E. Knox, H. P. Hratchian, J. B. Cross, 
 C. Adamo, J. Jaramillo, R. Gomperts, R. E. Stratmann, O. Yazyev, 
 A. J. Austin, R. Cammi, C. Pomelli, J. W. Ochterski, P. Y. Ayala, 
 K. Morokuma, G. A. Voth, P. Salvador, J. J. Dannenberg, 
 V. G. Zakrzewski, S. Dapprich, A. D. Daniels, M. C. Strain, 
 O. Farkas, D. K. Malick, A. D. Rabuck, K. Raghavachari, 
 J. B. Foresman, J. V. Ortiz, Q. Cui, A. G. Baboul, S. Clifford, 
 J. Cioslowski, B. B. Stefanov, G. Liu, A. Liashenko, P. Piskorz, 
 I. Komaromi, R. L. Martin, D. J. Fox, T. Keith, M. A. Al-Laham, 
 C. Y. Peng, A. Nanayakkara, M. Challacombe, P. M. W. Gill, 
 B. Johnson, W. Chen, M. W. Wong, C. Gonzalez, and J. A. Pople, 
 Gaussian, Inc., Wallingford CT, 2004.
 
 ******************************************
 Gaussian 03:  AM64L-G03RevC.02 12-Jun-2004
                17-Apr-2012 
 ******************************************
 %chk=geom
 ----------------------------------------------------
 # B3LYP 6-311+G** geom=checkpoint freq pop=none test
 ----------------------------------------------------
 1/10=4,29=2,30=1,38=1/1,3;
 2/40=1/2;
 3/5=4,6=6,7=111,11=2,16=1,25=1,30=1,74=-5/1,2,3;
 4//1;
 5/5=2,38=5/2;
 8/6=4,10=90,11=11/1;
 11/6=1,8=1,9=11,15=111,16=1/1,2,10;
 10/6=1/2;
 7/8=1,10=1,25=1/1,2,3,16;
 1/10=4,30=1/3;
 99//99;
 --------------------------------
 *** Vibrations CH3-C6H5 **** 0 1
 --------------------------------
 Z-Matrix taken from the checkpoint file:
 geom.chk
 Charge =  0 Multiplicity = 1
 C
 C,1,cc2
 C,2,cc3,1,ccc3
 C,3,cc4,2,ccc4,1,dih4,0
 C,4,cc5,3,ccc5,2,dih5,0
 C,5,cc6,4,ccc6,3,dih6,0
 C,2,cc7,3,ccc7,4,dih7,0
 H,5,hc8,4,hcc8,3,dih8,0
 H,4,hc9,3,hcc9,2,dih9,0
 H,6,hc10,5,hcc10,4,dih10,0
 C,3,cc11,2,ccc11,1,dih11,0
 H,1,hc12,2,hcc12,3,dih12,0
 H,7,hc13,2,hcc13,3,dih13,0
 H,7,hc14,2,hcc14,3,dih14,0
 H,7,hc15,2,hcc15,3,dih15,0
 H,11,hc16,3,hcc16,2,dih16,0
 H,11,hc17,3,hcc17,16,dih17,0
 H,11,hc18,3,hcc18,16,dih18,0
      Variables:
 cc2=1.39768575
 cc3=1.41008086
 ccc3=118.9729688
 cc4=1.39769195
 ccc4=118.97068426
 dih4=-0.01268129
 cc5=1.39375782
 ccc5=121.51954489
 dih5=0.01436543
 cc6=1.39106941
 ccc6=119.50941431
 dih6=-0.00524874
 cc7=1.50955219
 ccc7=120.90213446
 dih7=179.95981577
 hc8=1.0843216
 hcc8=120.03216388
 dih8=179.99859506
 hc9=1.08554624
 hcc9=118.99122708
 dih9=180.00601498
 hc10=1.08432174
 hcc10=120.45886694
 dih10=180.00238392
 cc11=1.50949973
 ccc11=120.9023207
 dih11=180.04669565
 hc12=1.08554156
 hcc12=118.99353145
 dih12=180.00974852
 hc13=1.09149227
 hcc13=110.99964512
 dih13=180.08920971
 hc14=1.0952272
 hcc14=111.64783657
 dih14=-59.64914326
 hc15=1.09521754
 hcc15=111.66183693
 dih15=59.81416142
 hc16=1.09149981
 hcc16=111.00292531
 dih16=180.04746026
 hc17=1.09518803
 hcc17=111.67359196
 dih17=120.30692353
 hc18=1.09526805
 hcc18=111.63901273
 dih18=239.77031339
 Recover connectivity data from disk.

 GradGradGradGradGradGradGradGradGradGradGradGradGradGradGradGradGradGrad
 Berny optimization.
 Initialization pass.
                       ----------------------------
                       !    Initial Parameters    !
                       ! (Angstroms and Degrees)  !
 ----------------------                            ----------------------
 !      Name          Value   Derivative information (Atomic Units)     !
 ------------------------------------------------------------------------
 !       cc2         1.3977   calculate D2E/DX2 analytically            !
 !       cc3         1.4101   calculate D2E/DX2 analytically            !
 !      ccc3       118.973    calculate D2E/DX2 analytically            !
 !       cc4         1.3977   calculate D2E/DX2 analytically            !
 !      ccc4       118.9707   calculate D2E/DX2 analytically            !
 !      dih4        -0.0127   calculate D2E/DX2 analytically            !
 !       cc5         1.3938   calculate D2E/DX2 analytically            !
 !      ccc5       121.5195   calculate D2E/DX2 analytically            !
 !      dih5         0.0144   calculate D2E/DX2 analytically            !
 !       cc6         1.3911   calculate D2E/DX2 analytically            !
 !      ccc6       119.5094   calculate D2E/DX2 analytically            !
 !      dih6        -0.0052   calculate D2E/DX2 analytically            !
 !       cc7         1.5096   calculate D2E/DX2 analytically            !
 !      ccc7       120.9021   calculate D2E/DX2 analytically            !
 !      dih7       179.9598   calculate D2E/DX2 analytically            !
 !       hc8         1.0843   calculate D2E/DX2 analytically            !
 !      hcc8       120.0322   calculate D2E/DX2 analytically            !
 !      dih8       179.9986   calculate D2E/DX2 analytically            !
 !       hc9         1.0855   calculate D2E/DX2 analytically            !
 !      hcc9       118.9912   calculate D2E/DX2 analytically            !
 !      dih9       180.006    calculate D2E/DX2 analytically            !
 !      hc10         1.0843   calculate D2E/DX2 analytically            !
 !      hcc10      120.4589   calculate D2E/DX2 analytically            !
 !      dih10      180.0024   calculate D2E/DX2 analytically            !
 !      cc11         1.5095   calculate D2E/DX2 analytically            !
 !      ccc11      120.9023   calculate D2E/DX2 analytically            !
 !      dih11      180.0467   calculate D2E/DX2 analytically            !
 !      hc12         1.0855   calculate D2E/DX2 analytically            !
 !      hcc12      118.9935   calculate D2E/DX2 analytically            !
 !      dih12      180.0097   calculate D2E/DX2 analytically            !
 !      hc13         1.0915   calculate D2E/DX2 analytically            !
 !      hcc13      110.9996   calculate D2E/DX2 analytically            !
 !      dih13      180.0892   calculate D2E/DX2 analytically            !
 !      hc14         1.0952   calculate D2E/DX2 analytically            !
 !      hcc14      111.6478   calculate D2E/DX2 analytically            !
 !      dih14      -59.6491   calculate D2E/DX2 analytically            !
 !      hc15         1.0952   calculate D2E/DX2 analytically            !
 !      hcc15      111.6618   calculate D2E/DX2 analytically            !
 !      dih15       59.8142   calculate D2E/DX2 analytically            !
 !      hc16         1.0915   calculate D2E/DX2 analytically            !
 !      hcc16      111.0029   calculate D2E/DX2 analytically            !
 !      dih16      180.0475   calculate D2E/DX2 analytically            !
 !      hc17         1.0952   calculate D2E/DX2 analytically            !
 !      hcc17      111.6736   calculate D2E/DX2 analytically            !
 !      dih17      120.3069   calculate D2E/DX2 analytically            !
 !      hc18         1.0953   calculate D2E/DX2 analytically            !
 !      hcc18      111.639    calculate D2E/DX2 analytically            !
 !      dih18      239.7703   calculate D2E/DX2 analytically            !
 ------------------------------------------------------------------------
 Trust Radius=3.00D-01 FncErr=1.00D-07 GrdErr=1.00D-07
 Number of steps in this run=   2 maximum allowed number of steps=   2.
 GradGradGradGradGradGradGradGradGradGradGradGradGradGradGradGradGradGrad

                          Input orientation:                          
 ---------------------------------------------------------------------
 Center     Atomic     Atomic              Coordinates (Angstroms)
 Number     Number      Type              X           Y           Z
 ---------------------------------------------------------------------
    1          6             0       -0.848208    0.000373   -1.321243
    2          6             0       -0.848208    0.000373    0.076443
    3          6             0        0.385399    0.000373    0.759482
    4          6             0        1.569980    0.000103    0.017652
    5          6             0        1.556922    0.000132   -1.376044
    6          6             0        0.339943    0.000327   -2.049866
    7          6             0       -2.153870   -0.000248    0.834067
    8          1             0        2.490542   -0.000059   -1.927503
    9          1             0        2.519857    0.000003    0.543147
   10          1             0        0.311819    0.000313   -3.133823
   11          6             0        0.436220   -0.000682    2.268125
   12          1             0       -1.797703    0.000535   -1.847417
   13          1             0       -3.003609   -0.001745    0.149014
   14          1             0       -2.244965   -0.879004    1.481378
   15          1             0       -2.246884    0.879306    1.480003
   16          1             0        1.467795    0.000315    2.624808
   17          1             0       -0.064540    0.877062    2.690311
   18          1             0       -0.061386   -0.881238    2.688389
 ---------------------------------------------------------------------
                    Distance matrix (angstroms):
                    1          2          3          4          5
     1  C    0.000000
     2  C    1.397686   0.000000
     3  C    2.418926   1.410081   0.000000
     4  C    2.764105   2.418902   1.397692   0.000000
     5  C    2.405754   2.809692   2.435762   1.393758   0.000000
     6  C    1.393770   2.435753   2.809716   2.405748   1.391069
     7  C    2.519943   1.509552   2.540364   3.812295   4.319093
     8  H    3.393347   3.893976   3.413432   2.151991   1.084322
     9  H    3.849651   3.400246   2.145393   1.085546   2.147216
    10  H    2.152001   3.413425   3.894000   3.393342   2.154082
    11  C    3.812259   2.540320   1.509500   2.519929   3.812604
    12  H    1.085542   2.145408   3.400273   3.849646   3.387581
    13  H    2.609102   2.156623   3.443552   4.575475   4.808768
    14  H    3.252525   2.167505   2.865878   4.179609   4.836537
    15  H    3.252045   2.167671   2.867157   4.180899   4.837240
    16  H    4.575499   3.443550   2.156624   2.609158   4.001845
    17  H    4.180345   2.866186   2.167748   3.253278   4.464683
    18  H    4.180129   2.866809   2.167381   3.251300   4.462662
                    6          7          8          9         10
     6  C    0.000000
     7  C    3.812634   0.000000
     8  H    2.154077   5.403409   0.000000
     9  H    3.387587   4.682772   2.470824   0.000000
    10  H    1.084322   4.671592   2.490390   4.289003   0.000000
    11  C    4.319065   2.960589   4.671567   2.705013   5.403381
    12  H    2.147212   2.705034   4.288993   4.935192   2.470815
    13  H    4.001802   1.091492   5.873468   5.537510   4.665736
    14  H    4.463705   1.095227   5.900682   4.935226   5.348872
    15  H    4.463660   1.095218   5.901490   4.936870   5.348550
    16  H    4.808808   4.040200   4.665785   2.332412   5.873510
    17  H    4.837515   2.929269   5.349953   3.472557   5.901769
    18  H    4.836247   2.931406   5.347455   3.470081   5.900388
                   11         12         13         14         15
    11  C    0.000000
    12  H    4.682745   0.000000
    13  H    4.040180   2.332370   0.000000
    14  H    2.929022   3.471960   1.766442   0.000000
    15  H    2.931648   3.470695   1.766469   1.758312   0.000000
    16  H    1.091500   5.537534   5.111068   3.983117   3.985229
    17  H    1.095188   4.935902   3.983543   3.049515   2.495491
    18  H    1.095268   4.936178   3.984797   2.494974   3.055506
                   16         17         18
    16  H    0.000000
    17  H    1.766643   0.000000
    18  H    1.766232   1.758304   0.000000
 Stoichiometry    C8H10
 Framework group  C1[X(C8H10)]
 Deg. of freedom    48
 Full point group                 C1      NOp   1
 Largest Abelian subgroup         C1      NOp   1
 Largest concise Abelian subgroup C1      NOp   1
                         Standard orientation:                         
 ---------------------------------------------------------------------
 Center     Atomic     Atomic              Coordinates (Angstroms)
 Number     Number      Type              X           Y           Z
 ---------------------------------------------------------------------
    1          6             0        0.745020   -1.382058   -0.000045
    2          6             0       -0.477744   -0.705025   -0.000366
    3          6             0       -0.477746    0.705055   -0.000559
    4          6             0        0.745048    1.382046   -0.000153
    5          6             0        1.957997    0.695522    0.000138
    6          6             0        1.957991   -0.695547    0.000135
    7          6             0       -1.773007   -1.480293    0.000120
    8          1             0        2.892682    1.245175    0.000428
    9          1             0        0.745435    2.467593   -0.000202
   10          1             0        2.892666   -1.245215    0.000398
   11          6             0       -1.772965    1.480296    0.000148
   12          1             0        0.745412   -2.467600   -0.000058
   13          1             0       -1.585300   -2.555523    0.001799
   14          1             0       -2.383598   -1.246312    0.878730
   15          1             0       -2.382995   -1.248898   -0.879580
   16          1             0       -1.585318    2.555545   -0.000961
   17          1             0       -2.384715    1.246591   -0.877679
   18          1             0       -2.381835    1.248661    0.880622
 ---------------------------------------------------------------------
 Rotational constants (GHZ):      3.1600864      2.1501357      1.3000465
 Standard basis: 6-311+G(d,p) (5D, 7F)
 There are   236 symmetry adapted basis functions of A   symmetry.
 Integral buffers will be    131072 words long.
 Raffenetti 2 integral format.
 Two-electron integral symmetry is turned on.
   236 basis functions,   368 primitive gaussians,   244 cartesian basis functions
    29 alpha electrons       29 beta electrons
       nuclear repulsion energy       345.1874954431 Hartrees.
 NAtoms=   18 NActive=   18 NUniq=   18 SFac= 1.00D+00 NAtFMM=   60 Big=F
 One-electron integrals computed using PRISM.
 NBasis=   236 RedAO= T  NBF=   236
 NBsUse=   235 1.00D-06 NBFU=   235
 Harris functional with IExCor=  402 diagonalized for initial guess.
 ExpMin= 4.38D-02 ExpMax= 4.56D+03 ExpMxC= 6.82D+02 IAcc=2 IRadAn=         4 AccDes= 0.00D+00
 HarFok:  IExCor= 402 AccDes= 0.00D+00 IRadAn=         4 IDoV=1
 ScaDFX=  1.000000  1.000000  1.000000  1.000000
 Initial guess orbital symmetries:
       Occupied  (A) (A) (A) (A) (A) (A) (A) (A) (A) (A) (A) (A)
                 (A) (A) (A) (A) (A) (A) (A) (A) (A) (A) (A) (A)
                 (A) (A) (A) (A) (A)
       Virtual   (A) (A) (A) (A) (A) (A) (A) (A) (A) (A) (A) (A)
                 (A) (A) (A) (A) (A) (A) (A) (A) (A) (A) (A) (A)
                 (A) (A) (A) (A) (A) (A) (A) (A) (A) (A) (A) (A)
                 (A) (A) (A) (A) (A) (A) (A) (A) (A) (A) (A) (A)
                 (A) (A) (A) (A) (A) (A) (A) (A) (A) (A) (A) (A)
                 (A) (A) (A) (A) (A) (A) (A) (A) (A) (A) (A) (A)
                 (A) (A) (A) (A) (A) (A) (A) (A) (A) (A) (A) (A)
                 (A) (A) (A) (A) (A) (A) (A) (A) (A) (A) (A) (A)
                 (A) (A) (A) (A) (A) (A) (A) (A) (A) (A) (A) (A)
                 (A) (A) (A) (A) (A) (A) (A) (A) (A) (A) (A) (A)
                 (A) (A) (A) (A) (A) (A) (A) (A) (A) (A) (A) (A)
                 (A) (A) (A) (A) (A) (A) (A) (A) (A) (A) (A) (A)
                 (A) (A) (A) (A) (A) (A) (A) (A) (A) (A) (A) (A)
                 (A) (A) (A) (A) (A) (A) (A) (A) (A) (A) (A) (A)
                 (A) (A) (A) (A) (A) (A) (A) (A) (A) (A) (A) (A)
                 (A) (A) (A) (A) (A) (A) (A) (A) (A) (A) (A) (A)
                 (A) (A) (A) (A) (A) (A) (A) (A) (A) (A) (A) (A)
                 (A) (A)
 The electronic state of the initial guess is 1-A.
 Requested convergence on RMS density matrix=1.00D-08 within 128 cycles.
 Requested convergence on MAX density matrix=1.00D-06.
 Requested convergence on             energy=1.00D-06.
 No special actions if energy rises.
 SCF Done:  E(RB+HF-LYP) =  -310.965647903     A.U. after   12 cycles
             Convg  =    0.3222D-08             -V/T =  2.0049
             S**2   =   0.0000
 Range of M.O.s used for correlation:     1   235
 NBasis=   236 NAE=    29 NBE=    29 NFC=     0 NFV=     0
 NROrb=    235 NOA=    29 NOB=    29 NVA=   206 NVB=   206

 **** Warning!!: The largest alpha MO coefficient is  0.17841036D+03

 Symmetrizing basis deriv contribution to polar:
 IMax=3 JMax=2 DiffMx= 0.00D+00
 G2DrvN: will do   19 centers at a time, making    1 passes doing MaxLOS=2.
 FoFDir/FoFCou used for L=0 through L=2.
 DoAtom=TTTTTTTTTTTTTTTTTT
          Differentiating once with respect to electric field.
                with respect to dipole field.
          Differentiating once with respect to nuclear coordinates.
 Integrals replicated using symmetry in FoFDir.
 MinBra= 0 MaxBra= 2 Meth= 1.
 IRaf=       0 NMat=  57 IRICut=      57 DoRegI=T DoRafI=T ISym2E= 2 JSym2E=2.
          There are  57 degrees of freedom in the 1st order CPHF.
    54 vectors were produced by pass  0.
 AX will form  54 AO Fock derivatives at one time.
    54 vectors were produced by pass  1.
    54 vectors were produced by pass  2.
    54 vectors were produced by pass  3.
    54 vectors were produced by pass  4.
    44 vectors were produced by pass  5.
    13 vectors were produced by pass  6.
    13 vectors were produced by pass  7.
    11 vectors were produced by pass  8.
     5 vectors were produced by pass  9.
     2 vectors were produced by pass 10.
 Inv2:  IOpt= 1 Iter= 1 AM= 9.11D-15 Conv= 1.00D-12.
 Inverted reduced A of dimension  358 with in-core refinement.
 Isotropic polarizability for W=    0.000000       92.09 Bohr**3.
 End of Minotr Frequency-dependent properties file   721 does not exist.
 Full mass-weighted force constant matrix:
 Low frequencies ---   -6.8576   -0.0012   -0.0007    0.0003   17.2008   19.5600
 Low frequencies ---  126.3717  161.9873  173.6401
 Diagonal vibrational polarizability:
        0.8833894       0.7981271       7.1054013
 Harmonic frequencies (cm**-1), IR intensities (KM/Mole), Raman scattering
 activities (A**4/AMU), depolarization ratios for plane and unpolarized
 incident light, reduced masses (AMU), force constants (mDyne/A),
 and normal coordinates:
                     1                      2                      3
                     A                      A                      A
 Frequencies --   126.3717               161.9864               173.6319
 Red. masses --     1.0708                 1.0737                 2.6227
 Frc consts  --     0.0101                 0.0166                 0.0466
 IR Inten    --     0.0000                 0.8706                 0.0000
 Atom AN      X      Y      Z        X      Y      Z        X      Y      Z
   1   6     0.00   0.00  -0.01     0.00   0.00  -0.02     0.00   0.00  -0.16
   2   6     0.00   0.00   0.00     0.00   0.00  -0.04     0.00   0.00  -0.01
   3   6     0.00   0.00   0.00     0.00   0.00  -0.04     0.00   0.00   0.01
   4   6     0.00   0.00   0.01     0.00   0.00  -0.02     0.00   0.00   0.16
   5   6     0.00   0.00   0.01     0.00   0.00   0.03     0.00   0.00   0.13
   6   6     0.00   0.00  -0.01     0.00   0.00   0.04     0.00   0.00  -0.13
   7   6     0.00   0.00   0.05     0.00   0.00   0.01     0.00   0.00   0.17
   8   1     0.00   0.00   0.02     0.00   0.00   0.07     0.00   0.00   0.24
   9   1     0.00   0.00   0.02     0.00   0.00  -0.03     0.00   0.00   0.27
  10   1     0.00   0.00  -0.02     0.00   0.00   0.07     0.00   0.00  -0.24
  11   6     0.00   0.00  -0.05     0.00   0.00   0.01     0.00   0.00  -0.17
  12   1     0.00   0.00  -0.02     0.00   0.00  -0.03     0.00   0.00  -0.27
  13   1     0.00   0.00  -0.32     0.00   0.00  -0.37     0.00   0.00   0.41
  14   1     0.21  -0.27   0.28     0.21  -0.28   0.23     0.03   0.20   0.14
  15   1    -0.21   0.28   0.27    -0.21   0.28   0.23    -0.03  -0.20   0.14
  16   1     0.00   0.00   0.32     0.00   0.00  -0.37     0.00   0.00  -0.41
  17   1     0.21   0.27  -0.28    -0.21  -0.28   0.23     0.03  -0.20  -0.14
  18   1    -0.21  -0.27  -0.27     0.22   0.28   0.23    -0.03   0.20  -0.14
                     4                      5                      6
                     A                      A                      A
 Frequencies --   256.4717               299.6704               411.0724
 Red. masses --     2.5837                 2.5118                 2.6543
 Frc consts  --     0.1001                 0.1329                 0.2643
 IR Inten    --     5.0639                 0.1350                 0.1689
 Atom AN      X      Y      Z        X      Y      Z        X      Y      Z
   1   6     0.00   0.00   0.12     0.03  -0.03   0.00    -0.10   0.05   0.00
   2   6     0.00   0.00   0.18     0.05   0.01   0.00    -0.01   0.16   0.00
   3   6     0.00   0.00   0.18     0.05  -0.01   0.00     0.01   0.16   0.00
   4   6     0.00   0.00   0.12     0.03   0.03   0.00     0.10   0.05   0.00
   5   6     0.00   0.00  -0.12     0.02   0.00   0.00     0.04  -0.10   0.00
   6   6     0.00   0.00  -0.12     0.02   0.00   0.00    -0.04  -0.10   0.00
   7   6     0.00   0.00  -0.11    -0.08   0.24   0.00     0.14  -0.06   0.00
   8   1     0.00   0.00  -0.32     0.03  -0.01   0.00     0.09  -0.19   0.00
   9   1     0.00   0.00   0.11     0.03   0.03   0.00     0.25   0.05   0.00
  10   1     0.00   0.00  -0.32     0.03   0.01   0.00    -0.09  -0.19   0.00
  11   6     0.00   0.00  -0.11    -0.08  -0.24   0.00    -0.14  -0.06   0.00
  12   1     0.00   0.00   0.11     0.03  -0.03   0.00    -0.25   0.05   0.00
  13   1     0.00   0.00  -0.39    -0.32   0.20   0.00     0.44  -0.01   0.00
  14   1    -0.10  -0.24  -0.11    -0.03   0.38   0.00     0.08  -0.24   0.00
  15   1     0.10   0.24  -0.11    -0.03   0.38   0.00     0.08  -0.24   0.00
  16   1     0.00   0.00  -0.39    -0.32  -0.20   0.00    -0.44  -0.01   0.00
  17   1     0.10  -0.24  -0.11    -0.03  -0.38   0.00    -0.08  -0.24   0.00
  18   1    -0.10   0.24  -0.11    -0.03  -0.38   0.00    -0.08  -0.24   0.00
                     7                      8                      9
                     A                      A                      A
 Frequencies --   447.6770               510.6406               521.5879
 Red. masses --     2.8191                 4.5857                 3.0618
 Frc consts  --     0.3329                 0.7045                 0.4908
 IR Inten    --     4.6524                 0.9009                 0.0000
 Atom AN      X      Y      Z        X      Y      Z        X      Y      Z
   1   6     0.00   0.00   0.20    -0.14   0.10   0.00     0.00   0.00   0.09
   2   6     0.00   0.00  -0.18    -0.17  -0.02   0.00     0.00   0.00   0.21
   3   6     0.00   0.00  -0.18     0.17  -0.02   0.00     0.00   0.00  -0.21
   4   6     0.00   0.00   0.20     0.14   0.10   0.00     0.00   0.00  -0.09
   5   6     0.00   0.00  -0.09     0.14   0.14   0.00     0.00   0.00   0.21
   6   6     0.00   0.00  -0.09    -0.14   0.14   0.00     0.00   0.00  -0.21
   7   6     0.00   0.00   0.01    -0.20  -0.16   0.00     0.00   0.00  -0.01
   8   1     0.00   0.00  -0.13     0.21   0.01   0.00     0.00   0.00   0.48
   9   1     0.00   0.00   0.57     0.00   0.10   0.00     0.00   0.00  -0.08
  10   1     0.00   0.00  -0.13    -0.21   0.01   0.00     0.00   0.00  -0.48
  11   6     0.00   0.00   0.01     0.20  -0.16   0.00     0.00   0.00   0.01
  12   1     0.00   0.00   0.57     0.00   0.10   0.00     0.00   0.00   0.08
  13   1     0.00   0.00   0.09    -0.02  -0.13   0.00     0.00   0.00  -0.17
  14   1     0.14   0.09   0.08    -0.24  -0.28   0.00    -0.20  -0.15  -0.11
  15   1    -0.14  -0.09   0.08    -0.24  -0.28   0.00     0.20   0.15  -0.11
  16   1     0.00   0.00   0.09     0.02  -0.13   0.00     0.00   0.00   0.17
  17   1    -0.13   0.09   0.08     0.24  -0.28   0.00    -0.20   0.15   0.11
  18   1     0.14  -0.09   0.08     0.24  -0.28   0.00     0.20  -0.15   0.11
                    10                     11                     12
                     A                      A                      A
 Frequencies --   590.2199               725.4714               745.3334
 Red. masses --     5.4794                 3.2630                 4.3201
 Frc consts  --     1.1246                 1.0118                 1.4140
 IR Inten    --     0.4407                 0.0000                 0.0599
 Atom AN      X      Y      Z        X      Y      Z        X      Y      Z
   1   6     0.09   0.22   0.00     0.00   0.00   0.15    -0.10   0.27   0.00
   2   6    -0.12   0.00   0.00     0.00   0.00  -0.23    -0.08   0.11   0.00
   3   6    -0.12   0.00   0.00     0.00   0.00   0.23    -0.08  -0.11   0.00
   4   6     0.09  -0.22   0.00     0.00   0.00  -0.15    -0.10  -0.27   0.00
   5   6     0.28  -0.01   0.00     0.00   0.00   0.17    -0.01  -0.02   0.00
   6   6     0.28   0.01   0.00     0.00   0.00  -0.17    -0.01   0.02   0.00
   7   6    -0.22  -0.07   0.00     0.00   0.00  -0.04     0.17   0.13   0.00
   8   1     0.17   0.18   0.00     0.00   0.00   0.24    -0.13   0.18   0.00
   9   1     0.13  -0.22   0.00     0.00   0.00  -0.41    -0.21  -0.28   0.00
  10   1     0.17  -0.18   0.00     0.00   0.00  -0.24    -0.13  -0.18   0.00
  11   6    -0.22   0.07   0.00     0.00   0.00   0.04     0.17  -0.13   0.00
  12   1     0.13   0.22   0.00     0.00   0.00   0.41    -0.21   0.28   0.00
  13   1    -0.27  -0.08   0.00     0.00   0.00   0.11     0.32   0.16   0.00
  14   1    -0.21  -0.04   0.00     0.23   0.14   0.09     0.15   0.06   0.00
  15   1    -0.21  -0.04   0.00    -0.23  -0.14   0.09     0.15   0.06   0.00
  16   1    -0.27   0.08   0.00     0.00   0.00  -0.11     0.32  -0.16   0.00
  17   1    -0.21   0.04   0.00     0.23  -0.14  -0.09     0.15  -0.06   0.00
  18   1    -0.21   0.04   0.00    -0.23   0.14  -0.09     0.15  -0.06   0.00
                    13                     14                     15
                     A                      A                      A
 Frequencies --   754.7789               835.5630               877.3313
 Red. masses --     1.1669                 4.1589                 1.2748
 Frc consts  --     0.3917                 1.7108                 0.5781
 IR Inten    --    64.8833                 0.3151                 0.0000
 Atom AN      X      Y      Z        X      Y      Z        X      Y      Z
   1   6     0.00   0.00   0.04    -0.10  -0.09   0.00     0.00   0.00   0.09
   2   6     0.00   0.00  -0.03     0.00  -0.11   0.00     0.00   0.00  -0.01
   3   6     0.00   0.00  -0.03     0.00  -0.11   0.00     0.00   0.00   0.01
   4   6     0.00   0.00   0.04     0.10  -0.09   0.00     0.00   0.00  -0.09
   5   6     0.00   0.00   0.07     0.25   0.13   0.00     0.00   0.00  -0.05
   6   6     0.00   0.00   0.07    -0.25   0.13   0.00     0.00   0.00   0.05
   7   6     0.00   0.00  -0.01     0.17   0.05   0.00     0.00   0.00  -0.02
   8   1     0.00   0.00  -0.58     0.36  -0.07   0.00     0.00   0.00   0.34
   9   1     0.00   0.00  -0.37    -0.11  -0.09   0.00     0.00   0.00   0.59
  10   1     0.00   0.00  -0.58    -0.36  -0.07   0.00     0.00   0.00  -0.34
  11   6     0.00   0.00  -0.01    -0.17   0.05   0.00     0.00   0.00   0.02
  12   1     0.00   0.00  -0.37     0.11  -0.09   0.00     0.00   0.00  -0.59
  13   1     0.00   0.00   0.06    -0.03   0.02   0.00     0.00   0.00   0.05
  14   1     0.07   0.05   0.03     0.23   0.22  -0.01     0.08   0.04   0.03
  15   1    -0.07  -0.05   0.03     0.22   0.22   0.01    -0.08  -0.04   0.03
  16   1     0.00   0.00   0.06     0.03   0.02   0.00     0.00   0.00  -0.05
  17   1    -0.07   0.05   0.03    -0.23   0.22  -0.01     0.08  -0.04  -0.03
  18   1     0.07  -0.05   0.03    -0.22   0.22   0.01    -0.08   0.04  -0.03
                    16                     17                     18
                     A                      A                      A
 Frequencies --   949.7288               994.6505              1003.2488
 Red. masses --     1.3334                 1.2997                 1.4455
 Frc consts  --     0.7086                 0.7576                 0.8572
 IR Inten    --     0.3679                 0.0000                 4.8298
 Atom AN      X      Y      Z        X      Y      Z        X      Y      Z
   1   6     0.00   0.00   0.10     0.00   0.00  -0.05     0.01  -0.05   0.00
   2   6     0.00   0.00   0.00     0.00   0.00  -0.01    -0.01   0.05   0.00
   3   6     0.00   0.00   0.00     0.00   0.00   0.01    -0.01  -0.05   0.00
   4   6     0.00   0.00   0.10     0.00   0.00   0.05     0.01   0.05   0.00
   5   6     0.00   0.00  -0.07     0.00   0.00  -0.10     0.04   0.04   0.00
   6   6     0.00   0.00  -0.07     0.00   0.00   0.10     0.04  -0.04   0.00
   7   6     0.00   0.00  -0.03     0.00   0.00   0.00    -0.05   0.09   0.00
   8   1     0.00   0.00   0.39     0.00   0.00   0.60     0.05   0.04   0.00
   9   1     0.00   0.00  -0.53     0.00   0.00  -0.35    -0.05   0.06   0.00
  10   1     0.00   0.00   0.39     0.00   0.00  -0.60     0.05  -0.04   0.00
  11   6     0.00   0.00  -0.03     0.00   0.00   0.00    -0.05  -0.09   0.00
  12   1     0.00   0.00  -0.53     0.00   0.00   0.35    -0.05  -0.06   0.00
  13   1     0.00   0.00   0.08     0.00   0.00  -0.02     0.48   0.18   0.00
  14   1     0.13   0.06   0.04    -0.02   0.00  -0.01    -0.13  -0.29   0.05
  15   1    -0.13  -0.06   0.04     0.02   0.00  -0.01    -0.13  -0.29  -0.05
  16   1     0.00   0.00   0.08     0.00   0.00   0.02     0.48  -0.18   0.00
  17   1    -0.13   0.06   0.05    -0.02   0.00   0.01    -0.13   0.29  -0.05
  18   1     0.13  -0.06   0.04     0.02   0.00   0.01    -0.13   0.29   0.05
                    19                     20                     21
                     A                      A                      A
 Frequencies --  1010.6996              1045.6160              1070.5262
 Red. masses --     1.6726                 1.4422                 1.6166
 Frc consts  --     1.0067                 0.9290                 1.0915
 IR Inten    --     1.2245                 4.5304                 0.0009
 Atom AN      X      Y      Z        X      Y      Z        X      Y      Z
   1   6    -0.01   0.13   0.00     0.00   0.00  -0.04     0.00   0.00  -0.03
   2   6     0.01  -0.02   0.00     0.00   0.00   0.08     0.00   0.00   0.12
   3   6    -0.01  -0.02   0.00     0.00   0.00   0.08     0.00   0.00  -0.12
   4   6     0.02   0.13   0.00     0.00   0.00  -0.04     0.00   0.00   0.03
   5   6    -0.01  -0.05   0.00     0.00   0.00   0.01     0.00   0.00   0.00
   6   6     0.01  -0.05   0.00     0.00   0.00   0.01     0.00   0.00   0.00
   7   6     0.04  -0.09   0.00     0.00   0.00  -0.10     0.00   0.00  -0.11
   8   1     0.07  -0.19   0.00     0.00   0.00  -0.04     0.00   0.00  -0.02
   9   1     0.09   0.14   0.00     0.00   0.00   0.22     0.00   0.00  -0.10
  10   1    -0.07  -0.19   0.00     0.00   0.00  -0.04     0.00   0.00   0.02
  11   6    -0.04  -0.09   0.00     0.00   0.00  -0.10     0.00   0.00   0.11
  12   1    -0.09   0.14   0.00     0.00   0.00   0.22     0.00   0.00   0.10
  13   1    -0.45  -0.17   0.00     0.00   0.00   0.22     0.00   0.00   0.24
  14   1     0.11   0.27  -0.04     0.38   0.17   0.13     0.40   0.17   0.13
  15   1     0.11   0.27   0.04    -0.38  -0.17   0.13    -0.40  -0.17   0.13
  16   1     0.45  -0.17   0.00     0.00   0.00   0.22     0.00   0.00  -0.24
  17   1    -0.11   0.27  -0.04    -0.38   0.17   0.13     0.40  -0.17  -0.13
  18   1    -0.11   0.27   0.04     0.38  -0.17   0.12    -0.40   0.17  -0.13
                    22                     23                     24
                     A                      A                      A
 Frequencies --  1072.2889              1142.8942              1184.3873
 Red. masses --     2.1007                 1.7283                 1.1096
 Frc consts  --     1.4231                 1.3301                 0.9171
 IR Inten    --     8.4877                 3.4518                 0.0001
 Atom AN      X      Y      Z        X      Y      Z        X      Y      Z
   1   6     0.10   0.08   0.00    -0.05  -0.11   0.00     0.03   0.00   0.00
   2   6     0.03   0.01   0.00     0.03   0.10   0.00     0.01   0.00   0.00
   3   6     0.03  -0.01   0.00    -0.03   0.10   0.00     0.01   0.00   0.00
   4   6     0.10  -0.08   0.00     0.05  -0.11   0.00     0.03   0.00   0.00
   5   6    -0.12  -0.12   0.00     0.00   0.05   0.00    -0.03   0.05   0.00
   6   6    -0.12   0.12   0.00     0.00   0.05   0.00    -0.03  -0.05   0.00
   7   6    -0.05   0.02   0.00     0.00  -0.07   0.00     0.00   0.00   0.00
   8   1    -0.01  -0.34   0.00    -0.20   0.38   0.00    -0.32   0.54   0.00
   9   1     0.52  -0.09   0.00     0.39  -0.11   0.00     0.31   0.00   0.00
  10   1    -0.01   0.34   0.00     0.20   0.38   0.00    -0.32  -0.54   0.00
  11   6    -0.05  -0.02   0.00     0.00  -0.07   0.00     0.00   0.00   0.00
  12   1     0.52   0.09   0.00    -0.39  -0.11   0.00     0.31   0.00   0.00
  13   1     0.13   0.05   0.00    -0.28  -0.12   0.00     0.00   0.00   0.00
  14   1    -0.07  -0.11   0.02     0.00   0.10  -0.04     0.00   0.00   0.00
  15   1    -0.06  -0.11  -0.02     0.00   0.10   0.04     0.00   0.00   0.00
  16   1     0.13  -0.05   0.00     0.28  -0.12   0.00     0.00   0.00   0.00
  17   1    -0.07   0.11  -0.02     0.00   0.10  -0.04     0.00   0.00   0.00
  18   1    -0.06   0.11   0.02     0.00   0.10   0.04     0.00   0.00   0.00
                    25                     26                     27
                     A                      A                      A
 Frequencies --  1203.4400              1241.2754              1315.5467
 Red. masses --     2.5750                 2.6461                 1.4539
 Frc consts  --     2.1973                 2.4021                 1.4825
 IR Inten    --     0.1422                 1.5594                 0.1099
 Atom AN      X      Y      Z        X      Y      Z        X      Y      Z
   1   6     0.10  -0.05   0.00     0.02   0.08   0.00    -0.03  -0.03   0.00
   2   6     0.15   0.14   0.00     0.22   0.08   0.00    -0.10   0.07   0.00
   3   6    -0.15   0.14   0.00     0.22  -0.08   0.00     0.10   0.07   0.00
   4   6    -0.10  -0.05   0.00     0.02  -0.08   0.00     0.03  -0.03   0.00
   5   6     0.10   0.00   0.00    -0.06   0.00   0.00    -0.01  -0.04   0.00
   6   6    -0.10   0.00   0.00    -0.06   0.00   0.00     0.01  -0.04   0.00
   7   6    -0.06  -0.05   0.00    -0.09  -0.04   0.00     0.03  -0.03   0.00
   8   1     0.30  -0.34   0.00    -0.15   0.13   0.00    -0.15   0.18   0.00
   9   1    -0.38  -0.04   0.00    -0.55  -0.09   0.00    -0.61  -0.03   0.00
  10   1    -0.30  -0.34   0.00    -0.15  -0.13   0.00     0.15   0.18   0.00
  11   6     0.06  -0.05   0.00    -0.09   0.04   0.00    -0.03  -0.03   0.00
  12   1     0.37  -0.04   0.00    -0.55   0.09   0.00     0.61  -0.03   0.00
  13   1    -0.20  -0.08   0.00    -0.13  -0.06   0.00    -0.02  -0.03   0.00
  14   1    -0.11  -0.05  -0.03    -0.10  -0.12   0.01     0.03   0.14  -0.04
  15   1    -0.11  -0.05   0.03    -0.10  -0.12  -0.01     0.03   0.14   0.04
  16   1     0.20  -0.08   0.00    -0.13   0.06   0.00     0.02  -0.03   0.00
  17   1     0.11  -0.05  -0.03    -0.10   0.12  -0.01    -0.03   0.14  -0.04
  18   1     0.11  -0.05   0.03    -0.10   0.12   0.01    -0.03   0.14   0.04
                    28                     29                     30
                     A                      A                      A
 Frequencies --  1326.7494              1413.7293              1423.8578
 Red. masses --     6.0719                 1.2632                 1.2302
 Frc consts  --     6.2973                 1.4874                 1.4695
 IR Inten    --     0.0184                 1.0104                 2.3250
 Atom AN      X      Y      Z        X      Y      Z        X      Y      Z
   1   6     0.25  -0.01   0.00    -0.01   0.01   0.00    -0.01   0.00   0.00
   2   6    -0.15   0.28   0.00    -0.02  -0.01   0.00    -0.01  -0.01   0.00
   3   6    -0.15  -0.28   0.00     0.02  -0.01   0.00    -0.01   0.01   0.00
   4   6     0.25   0.01   0.00     0.01   0.01   0.00    -0.01   0.00   0.00
   5   6    -0.12   0.22   0.00     0.00  -0.01   0.00     0.01  -0.01   0.00
   6   6    -0.12  -0.22   0.00     0.00  -0.01   0.00     0.01   0.01   0.00
   7   6     0.04  -0.05   0.00     0.09   0.05   0.00     0.09   0.04   0.00
   8   1     0.17  -0.27   0.00    -0.02   0.03   0.00     0.00   0.01   0.00
   9   1    -0.14   0.01   0.00    -0.04   0.01   0.00     0.03   0.00   0.00
  10   1     0.17   0.27   0.00     0.02   0.03   0.00     0.00  -0.01   0.00
  11   6     0.04   0.05   0.00    -0.09   0.05   0.00     0.09  -0.05   0.00
  12   1    -0.14  -0.01   0.00     0.04   0.01   0.00     0.03   0.00   0.00
  13   1    -0.22  -0.09   0.00    -0.36  -0.04   0.00    -0.34  -0.04   0.00
  14   1    -0.05   0.17  -0.12    -0.31  -0.22  -0.19    -0.32  -0.22  -0.19
  15   1    -0.05   0.17   0.12    -0.31  -0.22   0.19    -0.32  -0.22   0.19
  16   1    -0.22   0.09   0.00     0.36  -0.04   0.00    -0.34   0.04   0.00
  17   1    -0.05  -0.17   0.12     0.30  -0.22  -0.19    -0.32   0.22   0.19
  18   1    -0.05  -0.17  -0.12     0.31  -0.22   0.19    -0.32   0.22  -0.19
                    31                     32                     33
                     A                      A                      A
 Frequencies --  1465.9813              1480.5316              1494.9727
 Red. masses --     1.5175                 1.0442                 1.0436
 Frc consts  --     1.9214                 1.3486                 1.3742
 IR Inten    --     0.3956                 0.0001                18.0445
 Atom AN      X      Y      Z        X      Y      Z        X      Y      Z
   1   6     0.03  -0.06   0.00     0.00   0.00   0.00     0.00   0.00   0.00
   2   6    -0.08   0.02   0.00     0.00   0.00   0.01     0.00   0.00  -0.01
   3   6     0.08   0.02   0.00     0.00   0.00  -0.01     0.00   0.00  -0.01
   4   6    -0.03  -0.06   0.00     0.00   0.00   0.00     0.00   0.00   0.00
   5   6    -0.08   0.07   0.00     0.00   0.00   0.00     0.00   0.00   0.00
   6   6     0.08   0.07   0.00     0.00   0.00   0.00     0.00   0.00   0.00
   7   6     0.03  -0.03   0.00     0.00   0.00   0.04     0.00   0.00  -0.04
   8   1     0.18  -0.38   0.00     0.00   0.00   0.00     0.00   0.00   0.00
   9   1     0.15  -0.07   0.00     0.00   0.00   0.01     0.01   0.00   0.00
  10   1    -0.18  -0.38   0.00     0.00   0.00   0.00     0.00   0.00   0.00
  11   6    -0.03  -0.03   0.00     0.00   0.00  -0.04     0.00   0.00  -0.04
  12   1    -0.15  -0.07   0.00     0.00   0.00  -0.01     0.01   0.00   0.00
  13   1     0.20   0.01   0.00     0.00   0.00  -0.50     0.02   0.00   0.50
  14   1    -0.17   0.22  -0.19     0.05   0.34  -0.04    -0.07  -0.33   0.02
  15   1    -0.17   0.22   0.19    -0.05  -0.34  -0.04     0.03   0.36   0.05
  16   1    -0.20   0.01   0.00     0.00   0.00   0.50     0.03   0.00   0.50
  17   1     0.17   0.22  -0.19     0.05  -0.34   0.04     0.03  -0.37   0.05
  18   1     0.17   0.22   0.19    -0.05   0.34   0.04    -0.07   0.32   0.02
                    34                     35                     36
                     A                      A                      A
 Frequencies --  1495.4387              1502.3508              1521.7787
 Red. masses --     1.1847                 1.3681                 2.1468
 Frc consts  --     1.5610                 1.8193                 2.9292
 IR Inten    --     0.3875                21.5626                15.9726
 Atom AN      X      Y      Z        X      Y      Z        X      Y      Z
   1   6    -0.05  -0.01   0.00     0.01   0.05   0.00     0.15   0.00   0.00
   2   6     0.04   0.04   0.00     0.06  -0.03   0.00    -0.07  -0.13   0.00
   3   6     0.04  -0.04   0.00    -0.06  -0.03   0.00    -0.07   0.13   0.00
   4   6    -0.05   0.01   0.00    -0.01   0.05   0.00     0.15   0.00   0.00
   5   6     0.02  -0.01   0.00     0.07  -0.05   0.00    -0.04  -0.08   0.00
   6   6     0.02   0.01   0.00    -0.07  -0.05   0.00    -0.04   0.08   0.00
   7   6     0.00  -0.05   0.00    -0.01  -0.03   0.00     0.02   0.01   0.00
   8   1     0.02  -0.01   0.00    -0.11   0.27   0.00    -0.19   0.15   0.00
   9   1     0.12   0.01   0.00     0.02   0.06   0.00    -0.51   0.01   0.00
  10   1     0.02   0.01   0.00     0.11   0.27   0.00    -0.19  -0.15   0.00
  11   6     0.00   0.05   0.00     0.01  -0.03   0.00     0.02  -0.01   0.00
  12   1     0.12  -0.01   0.00    -0.02   0.06   0.00    -0.51  -0.01   0.00
  13   1     0.31   0.02  -0.04     0.33   0.04   0.00     0.24   0.05   0.00
  14   1    -0.24   0.29  -0.25    -0.24   0.20  -0.22    -0.11   0.11  -0.11
  15   1    -0.25   0.24   0.24    -0.24   0.20   0.21    -0.11   0.11   0.11
  16   1     0.31  -0.02  -0.04    -0.33   0.04   0.00     0.24  -0.05   0.00
  17   1    -0.25  -0.24   0.24     0.24   0.20  -0.22    -0.11  -0.11   0.11
  18   1    -0.24  -0.29  -0.24     0.24   0.21   0.21    -0.11  -0.11  -0.11
                    37                     38                     39
                     A                      A                      A
 Frequencies --  1616.7073              1645.7092              3017.0368
 Red. masses --     5.6162                 5.7244                 1.0388
 Frc consts  --     8.6488                 9.1346                 5.5710
 IR Inten    --     0.3042                 3.6610                 9.0877
 Atom AN      X      Y      Z        X      Y      Z        X      Y      Z
   1   6    -0.01   0.15   0.00     0.33   0.01   0.00     0.00   0.00   0.00
   2   6     0.07  -0.26   0.00    -0.24   0.05   0.00     0.00   0.00   0.00
   3   6     0.07   0.26   0.00     0.24   0.05   0.00     0.00   0.00   0.00
   4   6    -0.01  -0.15   0.00    -0.33   0.01   0.00     0.00   0.00   0.00
   5   6    -0.08   0.33   0.00     0.19  -0.08   0.00     0.00   0.00   0.00
   6   6    -0.08  -0.33   0.00    -0.19  -0.08   0.00     0.00   0.00   0.00
   7   6     0.00   0.02   0.00     0.03   0.00   0.00     0.04   0.01   0.00
   8   1     0.30  -0.30   0.00     0.02   0.24   0.00     0.00   0.00   0.00
   9   1     0.08  -0.16   0.00     0.42   0.01   0.00     0.00   0.01   0.00
  10   1     0.30   0.30   0.00    -0.02   0.24   0.00     0.00   0.00   0.00
  11   6     0.00  -0.02   0.00    -0.03   0.00   0.00    -0.04   0.01   0.00
  12   1     0.08   0.16   0.00    -0.42   0.01   0.00     0.00   0.00   0.00
  13   1     0.20   0.06   0.00    -0.13  -0.03   0.00     0.06  -0.26   0.00
  14   1    -0.11   0.01  -0.07     0.10  -0.02   0.06    -0.24   0.10   0.36
  15   1    -0.11   0.01   0.07     0.10  -0.02  -0.06    -0.24   0.10  -0.36
  16   1     0.20  -0.06   0.00     0.13  -0.02   0.00    -0.06  -0.28   0.00
  17   1    -0.11  -0.01   0.07    -0.10  -0.02   0.06     0.25   0.11   0.38
  18   1    -0.11  -0.01  -0.07    -0.10  -0.02  -0.06     0.26   0.11  -0.39
                    40                     41                     42
                     A                      A                      A
 Frequencies --  3017.6396              3059.1355              3061.2397
 Red. masses --     1.0378                 1.0997                 1.0996
 Frc consts  --     5.5679                 6.0632                 6.0713
 IR Inten    --    54.3319                38.2189                 0.0097
 Atom AN      X      Y      Z        X      Y      Z        X      Y      Z
   1   6     0.00   0.00   0.00     0.00   0.00   0.00     0.00   0.00   0.00
   2   6     0.00   0.00   0.00     0.00   0.00   0.00     0.00   0.00   0.00
   3   6     0.00   0.00   0.00     0.00   0.00   0.00     0.00   0.00   0.00
   4   6     0.00   0.00   0.00     0.00   0.00   0.00     0.00   0.00   0.00
   5   6     0.00   0.00   0.00     0.00   0.00   0.00     0.00   0.00   0.00
   6   6     0.00   0.00   0.00     0.00   0.00   0.00     0.00   0.00   0.00
   7   6     0.04   0.01   0.00     0.00   0.00   0.06     0.00   0.00  -0.07
   8   1     0.00   0.00   0.00     0.00   0.00   0.00     0.00   0.00   0.00
   9   1     0.00  -0.01   0.00     0.00   0.00   0.00     0.00   0.00   0.00
  10   1     0.00   0.00   0.00     0.00   0.00   0.00     0.00   0.00   0.00
  11   6     0.03  -0.01   0.00     0.00   0.00   0.07     0.00   0.00   0.06
  12   1     0.00   0.01   0.00     0.00   0.00   0.00     0.00   0.00   0.00
  13   1     0.06  -0.28   0.00     0.00   0.00   0.01     0.00   0.00  -0.02
  14   1    -0.25   0.10   0.39     0.28  -0.11  -0.39    -0.28   0.12   0.40
  15   1    -0.25   0.10  -0.39    -0.28   0.11  -0.39     0.28  -0.12   0.40
  16   1     0.05   0.26   0.00     0.00   0.01   0.01     0.00   0.01   0.02
  17   1    -0.23  -0.10  -0.36    -0.29  -0.12  -0.40    -0.28  -0.11  -0.39
  18   1    -0.24  -0.10   0.36     0.28   0.11  -0.40     0.27   0.11  -0.39
                    43                     44                     45
                     A                      A                      A
 Frequencies --  3100.7106              3102.0878              3152.4546
 Red. masses --     1.0993                 1.0990                 1.0859
 Frc consts  --     6.2271                 6.2311                 6.3580
 IR Inten    --    37.4147                 2.5087                14.0088
 Atom AN      X      Y      Z        X      Y      Z        X      Y      Z
   1   6     0.00   0.00   0.00     0.00   0.00   0.00     0.00  -0.05   0.00
   2   6     0.00   0.00   0.00     0.00   0.00   0.00     0.00   0.00   0.00
   3   6     0.00   0.00   0.00     0.00   0.00   0.00     0.00   0.00   0.00
   4   6     0.00   0.00   0.00     0.00   0.00   0.00     0.00  -0.05   0.00
   5   6     0.00   0.00   0.00     0.00   0.00   0.00     0.03   0.02   0.00
   6   6     0.00   0.00   0.00     0.00   0.00   0.00    -0.03   0.02   0.00
   7   6    -0.03   0.06   0.00     0.03  -0.06   0.00     0.00   0.00   0.00
   8   1    -0.01   0.00   0.00     0.00   0.00   0.00    -0.34  -0.20   0.00
   9   1     0.00   0.04   0.00     0.00   0.03   0.00     0.00   0.59   0.00
  10   1     0.01   0.00   0.00     0.00   0.00   0.00     0.33  -0.20   0.00
  11   6     0.03   0.06   0.00     0.03   0.06   0.00     0.00   0.00   0.00
  12   1     0.00   0.04   0.00     0.00  -0.04   0.00     0.00   0.58   0.00
  13   1     0.11  -0.62   0.00    -0.12   0.66   0.00     0.00   0.03   0.00
  14   1     0.10  -0.03  -0.15    -0.10   0.03   0.16     0.00   0.00   0.01
  15   1     0.10  -0.03   0.15    -0.10   0.03  -0.16     0.00   0.00  -0.01
  16   1    -0.12  -0.66   0.00    -0.11  -0.62   0.00     0.00   0.03   0.00
  17   1    -0.10  -0.03  -0.16    -0.10  -0.03  -0.16     0.00   0.00   0.01
  18   1    -0.10  -0.03   0.16    -0.10  -0.03   0.15     0.00   0.00  -0.01
                    46                     47                     48
                     A                      A                      A
 Frequencies --  3156.8967              3170.9950              3185.7876
 Red. masses --     1.0886                 1.0917                 1.0975
 Frc consts  --     6.3921                 6.4673                 6.5625
 IR Inten    --     2.6084                28.7427                19.9959
 Atom AN      X      Y      Z        X      Y      Z        X      Y      Z
   1   6     0.00   0.06   0.00     0.00   0.03   0.00     0.00   0.02   0.00
   2   6     0.00   0.00   0.00     0.00   0.00   0.00     0.00   0.00   0.00
   3   6     0.00   0.00   0.00     0.00   0.00   0.00     0.00   0.00   0.00
   4   6     0.00  -0.06   0.00     0.00   0.03   0.00     0.00  -0.02   0.00
   5   6     0.02   0.01   0.00     0.05   0.02   0.00    -0.05  -0.03   0.00
   6   6     0.02  -0.01   0.00    -0.05   0.02   0.00    -0.05   0.03   0.00
   7   6     0.00   0.00   0.00     0.00   0.00   0.00     0.00   0.00   0.00
   8   1    -0.20  -0.12   0.00    -0.51  -0.29   0.00     0.57   0.34   0.00
   9   1     0.00   0.66   0.00     0.00  -0.39   0.00     0.00   0.23   0.00
  10   1    -0.20   0.12   0.00     0.51  -0.29   0.00     0.57  -0.34   0.00
  11   6     0.00   0.00   0.00     0.00   0.00   0.00     0.00   0.00   0.00
  12   1     0.00  -0.67   0.00     0.00  -0.39   0.00     0.00  -0.23   0.00
  13   1     0.00  -0.04   0.00     0.00  -0.02   0.00     0.00  -0.01   0.00
  14   1     0.00   0.00   0.00     0.00   0.00   0.00     0.00   0.00   0.00
  15   1     0.00   0.00   0.00     0.00   0.00   0.00     0.00   0.00   0.00
  16   1     0.00   0.03   0.00     0.00  -0.02   0.00     0.00   0.01   0.00
  17   1     0.00   0.00   0.00     0.00   0.00   0.00     0.00   0.00   0.00
  18   1     0.00   0.00   0.00     0.00   0.00   0.00     0.00   0.00   0.00

 -------------------
 - Thermochemistry -
 -------------------
 Temperature   298.150 Kelvin.  Pressure   1.00000 Atm.
 Atom  1 has atomic number  6 and mass  12.00000
 Atom  2 has atomic number  6 and mass  12.00000
 Atom  3 has atomic number  6 and mass  12.00000
 Atom  4 has atomic number  6 and mass  12.00000
 Atom  5 has atomic number  6 and mass  12.00000
 Atom  6 has atomic number  6 and mass  12.00000
 Atom  7 has atomic number  6 and mass  12.00000
 Atom  8 has atomic number  1 and mass   1.00783
 Atom  9 has atomic number  1 and mass   1.00783
 Atom 10 has atomic number  1 and mass   1.00783
 Atom 11 has atomic number  6 and mass  12.00000
 Atom 12 has atomic number  1 and mass   1.00783
 Atom 13 has atomic number  1 and mass   1.00783
 Atom 14 has atomic number  1 and mass   1.00783
 Atom 15 has atomic number  1 and mass   1.00783
 Atom 16 has atomic number  1 and mass   1.00783
 Atom 17 has atomic number  1 and mass   1.00783
 Atom 18 has atomic number  1 and mass   1.00783
 Molecular mass:   106.07825 amu.
 Principal axes and moments of inertia in atomic units:
                           1         2         3
     EIGENVALUES --   571.10502 839.361521388.21277
           X            1.00000   0.00000  -0.00001
           Y            0.00000   1.00000   0.00001
           Z            0.00001  -0.00001   1.00000
 This molecule is an asymmetric top.
 Rotational symmetry number  1.
 Warning -- assumption of classical behavior for rotation
           may cause significant error
 Rotational temperatures (Kelvin)      0.15166     0.10319     0.06239
 Rotational constants (GHZ):           3.16009     2.15014     1.30005
 Zero-point vibrational energy     407232.2 (Joules/Mol)
                                   97.33082 (Kcal/Mol)
 Warning -- explicit consideration of  10 degrees of freedom as
           vibrations may cause significant error
 Vibrational temperatures:    181.82   233.06   249.82   369.01   431.16
          (Kelvin)            591.44   644.11   734.70   750.45   849.19
                             1043.79  1072.37  1085.96  1202.19  1262.28
                             1366.45  1431.08  1443.45  1454.17  1504.41
                             1540.25  1542.78  1644.37  1704.07  1731.48
                             1785.92  1892.78  1908.89  2034.04  2048.61
                             2109.22  2130.15  2150.93  2151.60  2161.55
                             2189.50  2326.08  2367.81  4340.84  4341.71
                             4401.41  4404.44  4461.23  4463.21  4535.67
                             4542.06  4562.35  4583.63
 
 Zero-point correction=                           0.155107 (Hartree/Particle)
 Thermal correction to Energy=                    0.162703
 Thermal correction to Enthalpy=                  0.163647
 Thermal correction to Gibbs Free Energy=         0.123542
 Sum of electronic and zero-point Energies=           -310.810541
 Sum of electronic and thermal Energies=              -310.802945
 Sum of electronic and thermal Enthalpies=            -310.802001
 Sum of electronic and thermal Free Energies=         -310.842105
 
                     E (Thermal)             CV                S
                      KCal/Mol        Cal/Mol-Kelvin    Cal/Mol-Kelvin
 Total                  102.097             29.124             84.407
 Electronic               0.000              0.000              0.000
 Translational            0.889              2.981             39.894
 Rotational               0.889              2.981             27.989
 Vibrational            100.320             23.162             16.524
 Vibration  1             0.611              1.927              3.001
 Vibration  2             0.622              1.889              2.526
 Vibration  3             0.627              1.875              2.396
 Vibration  4             0.666              1.752              1.686
 Vibration  5             0.692              1.674              1.419
 Vibration  6             0.775              1.446              0.923
 Vibration  7             0.807              1.366              0.803
 Vibration  8             0.866              1.226              0.632
 Vibration  9             0.877              1.202              0.606
 Vibration 10             0.948              1.053              0.467
                       Q            Log10(Q)             Ln(Q)
 Total Bot       0.149460D-56        -56.825475       -130.845491
 Total V=0       0.329937D+15         14.518432         33.429924
 Vib (Bot)       0.119186D-69        -69.923776       -161.005445
 Vib (Bot)  1    0.161467D+01          0.208083          0.479129
 Vib (Bot)  2    0.124727D+01          0.095962          0.220960
 Vib (Bot)  3    0.115926D+01          0.064182          0.147784
 Vib (Bot)  4    0.758629D+00         -0.119971         -0.276242
 Vib (Bot)  5    0.634738D+00         -0.197406         -0.454544
 Vib (Bot)  6    0.430046D+00         -0.366485         -0.843862
 Vib (Bot)  7    0.383782D+00         -0.415916         -0.957682
 Vib (Bot)  8    0.318805D+00         -0.496475         -1.143177
 Vib (Bot)  9    0.309015D+00         -0.510020         -1.174364
 Vib (Bot) 10    0.255531D+00         -0.592556         -1.364410
 Vib (V=0)       0.263106D+02          1.420130          3.269970
 Vib (V=0)  1    0.219031D+01          0.340506          0.784043
 Vib (V=0)  2    0.184376D+01          0.265704          0.611807
 Vib (V=0)  3    0.176249D+01          0.246127          0.566729
 Vib (V=0)  4    0.140858D+01          0.148782          0.342582
 Vib (V=0)  5    0.130802D+01          0.116613          0.268512
 Vib (V=0)  6    0.115950D+01          0.064271          0.147989
 Vib (V=0)  7    0.113031D+01          0.053197          0.122490
 Vib (V=0)  8    0.109299D+01          0.038616          0.088917
 Vib (V=0)  9    0.108778D+01          0.036543          0.084143
 Vib (V=0) 10    0.106151D+01          0.025925          0.059695
 Electronic      0.100000D+01          0.000000          0.000000
 Translational   0.429432D+08          7.632895         17.575390
 Rotational      0.292016D+06          5.465407         12.584564
 ***** Axes restored to original set *****
 -------------------------------------------------------------------
 Center     Atomic                   Forces (Hartrees/Bohr)
 Number     Number              X              Y              Z
 -------------------------------------------------------------------
    1          6           0.000016388    0.000025720   -0.000020875
    2          6           0.000006497   -0.000013390    0.000021380
    3          6          -0.000022651   -0.000050425   -0.000029116
    4          6           0.000012096    0.000035002   -0.000005019
    5          6           0.000006072   -0.000000055    0.000009193
    6          6          -0.000019328   -0.000004510    0.000004872
    7          6          -0.000003531   -0.000009688   -0.000005575
    8          1          -0.000001249    0.000001870   -0.000003925
    9          1          -0.000002258   -0.000005418   -0.000001035
   10          1           0.000004488    0.000001789   -0.000000818
   11          6           0.000010346   -0.000063509    0.000035436
   12          1          -0.000001596   -0.000009783    0.000003068
   13          1           0.000001287    0.000007277    0.000001772
   14          1          -0.000004338    0.000005970    0.000000166
   15          1           0.000005665    0.000005859    0.000002716
   16          1          -0.000003804    0.000036859   -0.000006322
   17          1           0.000009963    0.000016605   -0.000002683
   18          1          -0.000014048    0.000019829   -0.000003235
 -------------------------------------------------------------------
 Cartesian Forces:  Max     0.000063509 RMS     0.000017314
 ------------------------------------------------------------------------
           Internal Coordinate Forces (Hartree/Bohr or radian)
 Cent Atom N1     Length/X     N2     Alpha/Y      N3      Beta/Z       J
 ------------------------------------------------------------------------
   1  C 
   2  C     1   0.000018(   1)
   3  C     2  -0.000019(   2)  1  -0.000032(  18)
   4  C     3  -0.000002(   3)  2  -0.000046(  19)  1   0.000032(  34)  0
   5  C     4  -0.000009(   4)  3  -0.000054(  20)  2  -0.000005(  35)  0
   6  C     5   0.000011(   5)  4  -0.000019(  21)  3  -0.000006(  36)  0
   7  C     2   0.000000(   6)  3   0.000000(  22)  4   0.000038(  37)  0
   8  H     5   0.000001(   7)  4   0.000008(  23)  3  -0.000003(  38)  0
   9  H     4  -0.000002(   8)  3   0.000000(  24)  2   0.000010(  39)  0
  10  H     6   0.000001(   9)  5  -0.000009(  25)  4  -0.000003(  40)  0
  11  C     3   0.000023(  10)  2   0.000006(  26)  1  -0.000071(  41)  0
  12  H     1   0.000000(  11)  2  -0.000007(  27)  3  -0.000018(  42)  0
  13  H     7  -0.000002(  12)  2   0.000001(  28)  3  -0.000014(  43)  0
  14  H     7  -0.000004(  13)  2   0.000012(  29)  3   0.000002(  44)  0
  15  H     7   0.000006(  14)  2  -0.000013(  30)  3  -0.000003(  45)  0
  16  H    11  -0.000006(  15)  3  -0.000010(  31)  2  -0.000004(  46)  0
  17  H    11   0.000008(  16)  3  -0.000012(  32) 16  -0.000033(  47)  0
  18  H    11  -0.000011(  17)  3   0.000001(  33) 16  -0.000042(  48)  0
 ------------------------------------------------------------------------
 Internal  Forces:  Max     0.000071443 RMS     0.000020465

 GradGradGradGradGradGradGradGradGradGradGradGradGradGradGradGradGradGrad
 Berny optimization.
 Search for a local minimum.
 Step number   1 out of a maximum of   2
 All quantities printed in internal units (Hartrees-Bohrs-Radians)
 Second derivative matrix not updated -- analytic derivatives used.
     Eigenvalues ---    0.00291   0.00994   0.02791   0.03710   0.05563
     Eigenvalues ---    0.05710   0.07358   0.08112   0.09206   0.11668
     Eigenvalues ---    0.12000   0.12444   0.13333   0.16430   0.18514
     Eigenvalues ---    0.19764   0.20458   0.22277   0.23043   0.23328
     Eigenvalues ---    0.24279   0.25037   0.26979   0.30275   0.30313
     Eigenvalues ---    0.30331   0.32651   0.33538   0.33968   0.34169
     Eigenvalues ---    0.34418   0.34471   0.34750   0.34993   0.35157
     Eigenvalues ---    0.35278   0.35485   0.35524   0.38506   0.42604
     Eigenvalues ---    0.44288   0.47949   0.49782   0.62136   0.63895
     Eigenvalues ---    1.61007   2.75005  24.40253
 Angle between quadratic step and forces=  65.08 degrees.
 Linear search not attempted -- first point.
 Variable       Old X    -DE/DX   Delta X   Delta X   Delta X     New X
                                 (Linear)    (Quad)   (Total)
   cc2        2.64124   0.00002   0.00000   0.00005   0.00005   2.64129
   cc3        2.66467  -0.00002   0.00000  -0.00005  -0.00005   2.66461
   ccc3       2.07647  -0.00003   0.00000  -0.00002  -0.00002   2.07645
   cc4        2.64126   0.00000   0.00000   0.00004   0.00004   2.64129
   ccc4       2.07643  -0.00005   0.00000   0.00002   0.00002   2.07645
   dih4      -0.00022   0.00003   0.00000   0.00023   0.00023   0.00001
   cc5        2.63382  -0.00001   0.00000  -0.00002  -0.00002   2.63380
   ccc5       2.12092  -0.00005   0.00000  -0.00002  -0.00002   2.12090
   dih5       0.00025  -0.00001   0.00000  -0.00025  -0.00025   0.00000
   cc6        2.62874   0.00001   0.00000   0.00003   0.00003   2.62877
   ccc6       2.08583  -0.00002   0.00000   0.00000   0.00000   2.08583
   dih6      -0.00009  -0.00001   0.00000   0.00009   0.00009   0.00000
   cc7        2.85264   0.00000   0.00000   0.00000   0.00000   2.85264
   ccc7       2.11014   0.00000   0.00000   0.00002   0.00002   2.11016
   dih7       3.14089   0.00004   0.00000   0.00070   0.00070   3.14159
   hc8        2.04907   0.00000   0.00000   0.00000   0.00000   2.04907
   hcc8       2.09496   0.00001   0.00000   0.00004   0.00004   2.09500
   dih8       3.14157   0.00000   0.00000   0.00003   0.00003   3.14159
   hc9        2.05139   0.00000   0.00000  -0.00001  -0.00001   2.05138
   hcc9       2.07679   0.00000   0.00000   0.00000   0.00000   2.07679
   dih9       3.14170   0.00001   0.00000  -0.00010  -0.00010   3.14159
   hc10       2.04907   0.00000   0.00000   0.00000   0.00000   2.04907
  hcc10       2.10240  -0.00001   0.00000  -0.00005  -0.00005   2.10235
  dih10       3.14163   0.00000   0.00000  -0.00004  -0.00004   3.14160
   cc11       2.85254   0.00002   0.00000   0.00010   0.00010   2.85264
  ccc11       2.11014   0.00001   0.00000   0.00001   0.00001   2.11016
  dih11       3.14241  -0.00007   0.00000  -0.00080  -0.00080   3.14161
   hc12       2.05138   0.00000   0.00000   0.00000   0.00000   2.05138
  hcc12       2.07683  -0.00001   0.00000  -0.00004  -0.00004   2.07679
  dih12       3.14176  -0.00002   0.00000  -0.00017  -0.00017   3.14159
   hc13       2.06262   0.00000   0.00000  -0.00001  -0.00001   2.06261
  hcc13       1.93731   0.00000   0.00000   0.00002   0.00002   1.93733
  dih13       3.14315  -0.00001   0.00000  -0.00156  -0.00156   3.14159
   hc14       2.06968   0.00000   0.00000  -0.00001  -0.00001   2.06967
  hcc14       1.94862   0.00001   0.00000   0.00011   0.00011   1.94874
  dih14      -1.04107   0.00000   0.00000  -0.00143  -0.00143  -1.04250
   hc15       2.06966   0.00001   0.00000   0.00001   0.00001   2.06967
  hcc15       1.94887  -0.00001   0.00000  -0.00013  -0.00013   1.94874
  dih15       1.04395   0.00000   0.00000  -0.00146  -0.00146   1.04250
   hc16       2.06264  -0.00001   0.00000  -0.00002  -0.00002   2.06261
  hcc16       1.93737  -0.00001   0.00000  -0.00004  -0.00004   1.93732
  dih16       3.14242   0.00000   0.00000  -0.00084  -0.00084   3.14158
   hc17       2.06961   0.00001   0.00000   0.00007   0.00007   2.06967
  hcc17       1.94907  -0.00001   0.00000  -0.00033  -0.00033   1.94874
  dih17       2.09975  -0.00003   0.00000  -0.00066  -0.00066   2.09910
   hc18       2.06976  -0.00001   0.00000  -0.00008  -0.00008   2.06967
  hcc18       1.94847   0.00000   0.00000   0.00027   0.00027   1.94873
  dih18       4.18478  -0.00004   0.00000  -0.00069  -0.00069   4.18409
         Item               Value     Threshold  Converged?
 Maximum Force            0.000071     0.000450     YES
 RMS     Force            0.000020     0.000300     YES
 Maximum Displacement     0.001558     0.001800     YES
 RMS     Displacement     0.000450     0.001200     YES
 Predicted change in Energy=-9.324005D-08
 Optimization completed.
    -- Stationary point found.
                       ----------------------------
                       !   Optimized Parameters   !
                       ! (Angstroms and Degrees)  !
 ----------------------                            ----------------------
 !      Name          Value   Derivative information (Atomic Units)     !
 ------------------------------------------------------------------------
 !       cc2         1.3977   -DE/DX =    0.0                           !
 !       cc3         1.4101   -DE/DX =    0.0                           !
 !      ccc3       118.973    -DE/DX =    0.0                           !
 !       cc4         1.3977   -DE/DX =    0.0                           !
 !      ccc4       118.9707   -DE/DX =    0.0                           !
 !      dih4        -0.0127   -DE/DX =    0.0                           !
 !       cc5         1.3938   -DE/DX =    0.0                           !
 !      ccc5       121.5195   -DE/DX =   -0.0001                        !
 !      dih5         0.0144   -DE/DX =    0.0                           !
 !       cc6         1.3911   -DE/DX =    0.0                           !
 !      ccc6       119.5094   -DE/DX =    0.0                           !
 !      dih6        -0.0052   -DE/DX =    0.0                           !
 !       cc7         1.5096   -DE/DX =    0.0                           !
 !      ccc7       120.9021   -DE/DX =    0.0                           !
 !      dih7       179.9598   -DE/DX =    0.0                           !
 !       hc8         1.0843   -DE/DX =    0.0                           !
 !      hcc8       120.0322   -DE/DX =    0.0                           !
 !      dih8       179.9986   -DE/DX =    0.0                           !
 !       hc9         1.0855   -DE/DX =    0.0                           !
 !      hcc9       118.9912   -DE/DX =    0.0                           !
 !      dih9       180.006    -DE/DX =    0.0                           !
 !      hc10         1.0843   -DE/DX =    0.0                           !
 !      hcc10      120.4589   -DE/DX =    0.0                           !
 !      dih10      180.0024   -DE/DX =    0.0                           !
 !      cc11         1.5095   -DE/DX =    0.0                           !
 !      ccc11      120.9023   -DE/DX =    0.0                           !
 !      dih11      180.0467   -DE/DX =   -0.0001                        !
 !      hc12         1.0855   -DE/DX =    0.0                           !
 !      hcc12      118.9935   -DE/DX =    0.0                           !
 !      dih12      180.0097   -DE/DX =    0.0                           !
 !      hc13         1.0915   -DE/DX =    0.0                           !
 !      hcc13      110.9996   -DE/DX =    0.0                           !
 !      dih13      180.0892   -DE/DX =    0.0                           !
 !      hc14         1.0952   -DE/DX =    0.0                           !
 !      hcc14      111.6478   -DE/DX =    0.0                           !
 !      dih14      -59.6491   -DE/DX =    0.0                           !
 !      hc15         1.0952   -DE/DX =    0.0                           !
 !      hcc15      111.6618   -DE/DX =    0.0                           !
 !      dih15       59.8142   -DE/DX =    0.0                           !
 !      hc16         1.0915   -DE/DX =    0.0                           !
 !      hcc16      111.0029   -DE/DX =    0.0                           !
 !      dih16      180.0475   -DE/DX =    0.0                           !
 !      hc17         1.0952   -DE/DX =    0.0                           !
 !      hcc17      111.6736   -DE/DX =    0.0                           !
 !      dih17      120.3069   -DE/DX =    0.0                           !
 !      hc18         1.0953   -DE/DX =    0.0                           !
 !      hcc18      111.639    -DE/DX =    0.0                           !
 !      dih18      239.7703   -DE/DX =    0.0                           !
 ------------------------------------------------------------------------
 GradGradGradGradGradGradGradGradGradGradGradGradGradGradGradGradGradGrad


 Test job not archived.
 1\1\GINC-PARIS19\Freq\RB3LYP\6-311+G(d,p)\C8H10\CHAQUIN\17-Apr-2012\1\
 \# B3LYP 6-311+G** GEOM=CHECKPOINT FREQ POP=NONE TEST\\*** Vibrations 
 CH3-C6H5 **** 0 1\\0,1\C\C,1,cc2\C,2,cc3,1,ccc3\C,3,cc4,2,ccc4,1,dih4,
 0\C,4,cc5,3,ccc5,2,dih5,0\C,5,cc6,4,ccc6,3,dih6,0\C,2,cc7,3,ccc7,4,dih
 7,0\H,5,hc8,4,hcc8,3,dih8,0\H,4,hc9,3,hcc9,2,dih9,0\H,6,hc10,5,hcc10,4
 ,dih10,0\C,3,cc11,2,ccc11,1,dih11,0\H,1,hc12,2,hcc12,3,dih12,0\H,7,hc1
 3,2,hcc13,3,dih13,0\H,7,hc14,2,hcc14,3,dih14,0\H,7,hc15,2,hcc15,3,dih1
 5,0\H,11,hc16,3,hcc16,2,dih16,0\H,11,hc17,3,hcc17,16,dih17,0\H,11,hc18
 ,3,hcc18,16,dih18,0\\cc2=1.39768575\cc3=1.41008086\ccc3=118.9729688\cc
 4=1.39769195\ccc4=118.97068426\dih4=-0.01268129\cc5=1.39375782\ccc5=12
 1.51954489\dih5=0.01436543\cc6=1.39106941\ccc6=119.50941431\dih6=-0.00
 524874\cc7=1.50955219\ccc7=120.90213446\dih7=179.95981577\hc8=1.084321
 6\hcc8=120.03216388\dih8=179.99859506\hc9=1.08554624\hcc9=118.99122708
 \dih9=180.00601498\hc10=1.08432174\hcc10=120.45886694\dih10=180.002383
 92\cc11=1.50949973\ccc11=120.9023207\dih11=180.04669565\hc12=1.0855415
 6\hcc12=118.99353145\dih12=180.00974852\hc13=1.09149227\hcc13=110.9996
 4512\dih13=180.08920971\hc14=1.0952272\hcc14=111.64783657\dih14=-59.64
 914326\hc15=1.09521754\hcc15=111.66183693\dih15=59.81416142\hc16=1.091
 49981\hcc16=111.00292531\dih16=180.04746026\hc17=1.09518803\hcc17=111.
 67359196\dih17=120.30692353\hc18=1.09526805\hcc18=111.63901273\dih18=2
 39.77031339\\Version=AM64L-G03RevC.02\State=1-A\HF=-310.9656479\RMSD=3
 .222e-09\RMSF=1.731e-05\Dipole=-0.130216,-0.0005057,0.2352019\DipoleDe
 riv=0.0081095,-0.0000483,0.0542746,-0.0002424,-0.1460721,-0.0000043,0.
 1200077,0.0000083,-0.0250891,0.2130693,0.0001136,-0.2061068,0.0002577,
 -0.0704731,0.0000373,-0.1838408,0.0000623,-0.0538339,-0.1540692,-0.000
 0177,0.0460493,-0.0002471,-0.0704685,-0.0009688,0.0237982,-0.0002855,0
 .3132898,0.0626654,-0.0001052,0.0858682,0.0001086,-0.1460719,0.0001515
 ,0.0201207,0.0000545,-0.0796164,0.041055,-0.0000239,-0.0416487,-0.0000
 191,-0.1486396,0.0000683,-0.0286784,0.0000418,-0.0236026,-0.0370114,-0
 .0000246,0.0202157,-0.0000083,-0.1486408,0.0000435,0.0072545,0.0000344
 ,0.0544641,0.0428313,-0.0000456,0.0481706,0.0001006,0.1253391,0.000064
 2,0.118187,0.0001093,0.0474661,-0.0707491,0.0000328,0.0867117,0.000022
 ,0.1404564,-0.0000373,0.0788956,-0.0000042,0.0122436,-0.0762548,0.0000
 226,-0.0761561,-0.0000104,0.1283309,-0.0000605,-0.0948098,0.0000049,0.
 0095092,0.0633572,0.0000013,-0.0050835,0.0000209,0.140457,-0.0000212,0
 .002732,0.0000103,-0.1218645,0.1209996,-0.0000176,0.0692582,0.0001029,
 0.1253382,0.0008881,-0.0007602,0.0001589,-0.0306663,-0.0915392,0.00002
 01,-0.0852243,0.0000581,0.1283331,0.0000173,-0.0665763,0.0000206,0.024
 8096,-0.0741989,-0.0001546,-0.0387558,-0.000279,0.0797758,-0.0001094,-
 0.1492957,-0.0002158,-0.0260647,0.0041956,0.0237118,0.0330407,-0.03631
 56,-0.0542684,0.1103768,0.0655146,0.0888151,-0.0165282,0.0041008,-0.02
 34237,0.0333177,0.0364865,-0.0544532,-0.1102665,0.0657112,-0.0887336,-
 0.0162695,-0.1242175,-0.0002133,-0.1179877,-0.0001891,0.0797822,-0.000
 1556,-0.0074553,-0.000033,0.023931,0.0336037,0.0878376,0.04721,0.07426
 4,-0.0539523,-0.089422,0.0147176,-0.0271697,-0.0460419,0.0340528,-0.08
 76654,0.0468463,-0.0741105,-0.0547729,0.0893985,0.0144772,0.0271213,-0
 .0461365\Polar=105.3975188,-0.0038147,59.2722612,-4.9430983,-0.0101078
 ,111.5889685\PG=C01 [X(C8H10)]\NImag=0\\0.72011582,-0.00004587,0.13422
 259,0.02041036,-0.00002857,0.66661396,-0.12513835,-0.00000551,0.031913
 07,0.61657875,-0.00001455,-0.06457371,0.00001465,0.00005504,0.17216870
 ,-0.03618884,-0.00000128,-0.31556670,0.00156527,-0.00007205,0.65993361
 ,0.03269787,0.00000338,-0.07552226,-0.24447786,-0.00000963,-0.03495197
 ,0.64910665,0.00001189,0.00685858,0.00000962,0.00001183,-0.07249275,0.
 00001113,-0.00004669,0.17216701,-0.03056374,0.00000131,-0.02589573,-0.
 09653623,0.00000276,-0.16214412,-0.01881194,-0.00014199,0.62746067,-0.
 01742590,-0.00000342,0.02560736,-0.05711263,0.00000101,-0.01928350,-0.
 26383556,0.00004188,0.11877129,0.70001901,0.00000447,-0.00613714,-0.00
 000596,0.00000413,0.00685965,0.00000294,0.00004976,-0.06457574,-0.0000
 2138,-0.00008184,0.13422273,0.02912094,0.00000099,-0.05169834,0.025675
 63,-0.00000026,0.06391421,0.05066789,0.00000717,-0.17685733,0.03297982
 ,-0.00001471,0.68671663,-0.05979964,0.00000729,0.02590941,-0.01751578,
 0.00000054,-0.03221744,0.03520064,-0.00001955,0.02796814,-0.12721785,0
 .00001443,0.03047413,0.72054802,0.00000587,0.00854723,-0.00000541,0.00
 000586,-0.00551424,0.00000677,-0.00001064,0.00631404,-0.00000706,0.000
 01468,-0.06285502,-0.00000469,-0.00009918,0.13265189,-0.02152926,-0.00
 000320,0.06280820,-0.03073626,-0.00000622,-0.05012904,0.07566574,-0.00
 000926,-0.02838462,-0.03334780,0.00001034,-0.33141277,-0.03224757,0.00
 000979,0.67572396,-0.27516853,0.00001250,0.05929824,0.03614265,0.00000
 694,0.07507696,-0.06925955,0.00000784,0.00166634,0.03024166,-0.0000059
 6,-0.07791555,-0.28818173,0.00003651,-0.05772965,0.65931878,0.00001331
 ,-0.06285810,-0.00000582,0.00000368,0.00631456,-0.00000195,0.00000266,
 -0.00551440,-0.00000140,0.00000117,0.00854719,0.00000672,0.00003868,-0
 .06301585,0.00001645,-0.00006368,0.13265396,0.12311990,-0.00000594,-0.
 18343652,0.02737871,0.00000574,-0.02932703,0.00018493,-0.00000788,0.00
 161651,-0.03047582,0.00000447,-0.02723482,-0.12067783,0.00002111,-0.17
 646310,0.00609738,-0.00001302,0.73692904,-0.00231882,-0.00000669,0.007
 92583,-0.17622108,-0.00003681,0.05379398,-0.02959442,-0.00000752,0.012
 02259,-0.00172391,-0.00000294,-0.00372322,-0.00048005,0.00000014,-0.00
 030343,0.00194159,-0.00000867,-0.00202204,0.50850942,-0.00000085,0.005
 68274,-0.00000359,-0.00006564,-0.07043459,0.00004440,-0.00000941,0.003
 40919,0.00000131,0.00000142,0.00618026,-0.00000287,0.00000412,-0.00101
 572,0.00000282,-0.00000723,0.00814823,0.00000119,-0.00002210,0.5261359
 2,0.03185454,0.00000856,-0.01991259,0.04564698,0.00001059,-0.11649712,
 -0.00811371,0.00000588,0.01428160,-0.00492369,0.00000436,-0.00195678,0
 .00119077,-0.00000048,-0.00086149,-0.00290541,-0.00000120,-0.00317914,
 0.04716795,0.00006396,0.54622646,-0.00305872,0.00000238,-0.00416764,0.
 00012089,-0.00000008,-0.00081957,0.00186050,0.00000104,-0.00073004,0.0
 0366161,-0.00000025,-0.00251253,-0.26293903,0.00004552,0.12061873,-0.0
 1847780,0.00000388,0.01682674,0.00000178,-0.00000050,0.00005421,0.2781
 0841,0.00000137,0.00717465,0.00000170,-0.00000053,-0.00082389,0.000001
 14,-0.00000183,0.00687479,-0.00000046,-0.00000015,0.00289903,-0.000000
 75,0.00004777,-0.03555088,-0.00002486,0.00000300,0.00308657,-0.0000038
 2,0.00000132,-0.00109671,-0.00000016,-0.00005011,0.02494989,-0.0031068
 4,0.00000021,-0.00065339,-0.00090906,0.00000002,-0.00083560,-0.0015520
 3,0.00000215,-0.00517322,0.02895022,-0.00000654,-0.01087247,0.12051523
 ,-0.00002429,-0.13026954,-0.01447127,0.00000259,0.01165330,0.00005022,
 0.00000015,0.00014240,-0.13019738,0.00002671,0.13466160,0.00017898,-0.
 00000029,0.00101501,-0.00275455,0.00000068,0.00405118,-0.02032878,0.00
 000276,-0.01542949,-0.26632001,0.00002928,-0.11429932,0.00280940,-0.00
 000034,0.00195183,0.00197914,0.00000111,0.00021892,-0.00063295,0.00000
 023,-0.00115038,0.00077318,-0.00000078,-0.00042472,0.28301740,-0.00000
 075,-0.00081611,-0.00000029,-0.00000020,0.00668454,-0.00000208,0.00001
 267,0.00365619,0.00000148,0.00001790,-0.03630262,0.00001157,0.00000152
 ,0.00306534,0.00000011,0.00000105,0.00684710,0.00000086,0.00000124,0.0
 0006827,0.00000064,-0.00000098,-0.00394396,-0.00000015,-0.00003181,0.0
 2535327,0.00081273,0.,-0.00071777,0.00328074,0.00000003,-0.00101276,0.
 01392400,-0.00000321,0.00875549,-0.11547077,0.00001072,-0.12115511,-0.
 02933395,0.00000482,-0.01051995,0.00126581,-0.00000006,-0.00568974,0.0
 0068336,0.00000055,0.00063749,0.00042736,0.00000010,0.00094611,0.12412
 548,-0.00001267,0.12839430,0.00511389,0.00000118,0.02804052,-0.0042185
 4,0.00000018,0.00225468,-0.00134369,0.00000021,0.00000811,-0.00460311,
 0.00000152,-0.00213975,0.00422566,-0.00000014,-0.02868793,-0.05917347,
 0.00000235,-0.00708469,0.00034264,-0.00000032,0.00101344,0.00096746,-0
 .00000075,0.00060390,-0.00001097,0.00000010,-0.00142230,0.05793706,-0.
 00000088,0.00289894,-0.00000194,0.00000105,0.00687469,0.00000176,0.000
 00045,-0.00082387,-0.00000027,0.00000153,0.00717468,0.00000161,-0.0000
 0109,0.00308638,0.00000311,0.00000419,-0.03555057,-0.00000608,0.000000
 22,0.00009119,-0.00000062,-0.00000106,-0.00407959,0.00000012,-0.000000
 04,0.00028729,-0.00000008,-0.00000375,0.02494973,-0.00342202,-0.000000
 23,-0.01232402,0.00307675,0.00000011,0.00090560,0.00009762,0.00000027,
 0.00062897,-0.00320051,0.00000014,0.00089098,0.00261005,-0.00000060,-0
 .01104967,-0.00698145,-0.00000228,-0.33403551,-0.00036680,-0.00000002,
 -0.00055412,-0.00031704,0.00000023,0.00078778,0.00016361,0.00000005,-0
 .00068104,0.00767580,0.00000243,0.35483249,-0.00578078,0.00000315,-0.0
 0238366,0.00368084,0.00001721,-0.02895288,-0.08858746,0.00001996,-0.00
 922917,0.00293708,-0.00001928,0.02856435,-0.00395319,-0.00000445,0.000
 78598,-0.00035508,-0.00000008,0.00111254,-0.00182816,-0.00000247,-0.00
 161871,-0.00001065,0.00000123,0.00123467,0.00042433,0.00000336,0.00177
 967,0.00014976,0.00000040,-0.00003846,0.57800211,-0.00000875,0.0061802
 3,-0.00000562,0.00001370,0.00340892,0.00001072,0.00001446,-0.07042968,
 0.00008082,-0.00000218,0.00568262,-0.00000795,0.00000869,0.00814822,-0
 .00000783,0.00000082,-0.00101573,0.00000828,-0.00000668,-0.00322281,0.
 00000303,0.00000030,0.00009123,-0.00000175,-0.00000198,-0.00438758,0.0
 0000013,-0.00000034,-0.00109668,-0.00000037,-0.00017333,0.52610620,-0.
 00118281,0.00000336,0.00210048,-0.00881612,0.00001830,-0.01899684,-0.0
 0108203,0.00007622,-0.20420211,0.00463482,0.00001764,-0.02516842,0.001
 66909,0.00000337,0.00271579,-0.00038162,-0.00000194,-0.00098692,0.0018
 5085,-0.00000400,-0.00197351,-0.00014553,0.00000034,-0.00020077,-0.002
 01775,-0.00000117,0.00123181,-0.00004244,0.00000018,-0.00000556,0.0036
 4120,0.00021633,0.47679563,-0.26540396,0.00003200,-0.11605434,-0.00011
 349,-0.00000007,0.00126574,0.00179467,0.00000044,0.00043227,0.00035697
 ,-0.00000027,0.00070137,-0.00286193,0.00000078,0.00429717,-0.01908271,
 0.00000329,-0.01562532,0.00089699,-0.00000153,0.00148346,-0.00105851,0
 .00000028,-0.00076634,-0.00007411,0.,-0.00008856,0.00089860,-0.0000005
 5,0.00034884,0.00006956,0.00000014,0.00024343,0.28362050,0.00003592,-0
 .03630061,0.00002901,-0.00000787,0.00365526,-0.00000862,0.00000528,0.0
 0668464,0.00000058,-0.00000168,-0.00081610,0.00000307,-0.00000191,0.00
 684695,-0.00000172,0.00000312,0.00306548,-0.00000156,0.00000683,-0.004
 38761,0.00000138,-0.00000022,0.00028727,-0.00000016,-0.00000025,-0.000
 89033,0.00000005,-0.00000019,-0.00394376,-0.00000004,-0.00000076,0.000
 06831,-0.00000008,-0.00003594,0.02535186,-0.11488365,0.00001925,-0.122
 08077,-0.02808692,0.00000204,-0.01145780,0.00120260,0.00000253,-0.0055
 6157,0.00090352,-0.00000010,-0.00089575,0.00325029,-0.00000025,-0.0008
 4895,0.01566073,-0.00000151,0.01137183,-0.00231384,-0.00000471,0.00075
 876,0.00081958,-0.00000017,0.00036647,-0.00009115,0.00000010,0.0000384
 3,-0.00050324,-0.00000002,0.00082064,-0.00159029,-0.00000177,-0.000065
 02,0.12375707,-0.00001985,0.12779954,0.00137622,0.00000364,-0.00306027
 ,-0.02265266,-0.00003236,-0.01863687,-0.00354853,-0.00000391,0.0042334
 0,-0.00072788,0.00000158,-0.00153822,0.00034505,-0.00000063,0.00029361
 ,-0.00015357,0.00000181,0.00040399,-0.20328718,-0.00027958,-0.12781398
 ,0.00006167,-0.00000036,0.00009340,-0.00041630,0.00000067,0.00027042,0
 .00000274,-0.00000013,0.00000479,0.00014762,-0.00000039,0.00069684,0.0
 0063137,-0.00000246,0.00139438,0.22336520,0.00000034,-0.00010724,-0.00
 000226,-0.00000184,-0.00157041,-0.00001149,-0.00000255,0.00122722,0.00
 000171,0.00000111,0.00033736,-0.00000140,-0.00000004,0.00005998,0.0000
 0100,0.00000029,-0.00023041,0.00000032,-0.00028745,-0.04696524,-0.0002
 2647,0.00000014,0.00001695,0.00000009,-0.00000013,-0.00014546,0.000000
 05,-0.00000002,-0.00003522,0.,0.00000220,-0.00057587,0.00000087,0.0000
 0039,0.00037155,0.00000264,0.00030602,0.04529257,0.00189362,0.00000082
 ,0.00069101,0.01423396,0.00002595,0.01098119,0.00277338,0.00000143,-0.
 00225807,0.00058415,-0.00000196,0.00051528,0.00007813,0.00000036,0.000
 06414,-0.00004469,0.00000147,0.00032430,-0.13212344,-0.00022863,-0.154
 99195,-0.00002885,-0.00000027,0.00000047,0.00022789,-0.00000040,-0.000
 10017,-0.00006025,-0.00000006,0.00004541,-0.00035087,-0.00000147,-0.00
 049983,0.00000039,-0.00000069,-0.00005275,0.13970323,0.00025245,0.1684
 7171,-0.00260994,-0.00015607,-0.00011533,-0.00206729,-0.02316468,0.017
 51083,0.00000590,0.00050207,0.00045016,0.00042145,0.00096923,0.0001349
 5,-0.00022608,-0.00016336,0.00037494,-0.00014687,0.00104723,0.00047286
 ,-0.04830201,-0.01585309,0.01021839,0.00000323,-0.00008734,-0.00002427
 ,-0.00002542,-0.00002241,-0.00006875,-0.00018638,0.00004100,0.00014506
 ,-0.00034422,-0.00137527,0.00055123,0.00014099,-0.00026010,0.00023203,
 0.00230012,0.02106340,-0.01342330,0.05149984,0.00012573,-0.00036297,-0
 .00087747,-0.00117271,0.00310667,-0.00145765,0.00027992,0.00098207,0.0
 0127748,-0.00013080,-0.00019153,-0.00012570,0.00001631,-0.00005201,0.0
 0007080,-0.00015912,-0.00021645,-0.00014002,-0.01447161,-0.21094137,0.
 12160024,-0.00001107,0.00002864,-0.00001257,-0.00007893,0.00000394,0.0
 0002121,-0.00001163,0.00004627,-0.00000692,0.00064069,0.00009936,-0.00
 003012,0.00001901,0.00007263,-0.00007157,0.00092871,0.00085736,-0.0012
 7579,0.01542091,0.22939561,0.00237580,0.00034455,-0.00000936,0.0040156
 7,0.01126111,-0.01212158,-0.00190981,-0.00041701,-0.00094293,0.0002672
 8,-0.00035090,-0.00035662,-0.00004273,0.00007769,0.00002798,0.00035914
 ,-0.00114139,-0.00051699,0.00816014,0.12258672,-0.13122409,0.00004907,
 0.00015057,0.00000936,0.00005472,0.00000171,0.00002490,0.00015482,-0.0
 0000820,-0.00013253,-0.00061255,-0.00003733,0.00102487,0.00009611,0.00
 069479,0.00018554,0.00198692,0.01660088,-0.01185896,-0.01376383,-0.134
 23040,0.14397817,-0.00259919,0.00015439,-0.00012053,-0.00211569,0.0231
 8038,0.01745791,0.00000452,-0.00050990,0.00045320,0.00042009,-0.000971
 31,0.00013372,-0.00022544,0.00016334,0.00037581,-0.00015009,-0.0010467
 6,0.00047097,-0.04836621,0.01623881,0.01047710,0.00000325,0.00008749,-
 0.00002418,-0.00002595,0.00002230,-0.00006867,-0.00018586,-0.00004077,
 0.00014474,-0.00034644,0.00137101,0.00055371,0.00014156,0.00026001,0.0
 0023154,0.00234713,-0.02108180,-0.01339163,-0.00040765,-0.00118011,-0.
 00151649,0.05155808,-0.00012918,-0.00036191,0.00087734,0.00117236,0.00
 314547,0.00147540,-0.00028039,0.00098124,-0.00127329,0.00013235,-0.000
 19310,0.00012520,-0.00001789,-0.00005214,-0.00007007,0.00016140,-0.000
 21738,0.00013970,0.01483602,-0.21126622,-0.12146732,0.00001117,0.00002
 871,0.00001250,0.00007882,0.00000412,-0.00002141,0.00001149,0.00004626
 ,0.00000699,-0.00063681,0.00009109,0.00002770,-0.00001812,0.00007192,0
 .00007259,-0.00092172,0.00078301,0.00122558,0.00122039,-0.02277322,-0.
 01560907,-0.01583331,0.22976037,0.00237561,-0.00033772,-0.00001068,0.0
 0403899,-0.01126971,-0.01209703,-0.00191020,0.00041623,-0.00094525,0.0
 0026926,0.00035120,-0.00035906,-0.00004090,-0.00007803,0.00003047,0.00
 035618,0.00114334,-0.00051591,0.00840164,-0.12245764,-0.13084102,0.000
 04888,-0.00015062,0.00000929,0.00005480,-0.00000143,0.00002462,0.00015
 445,0.00000758,-0.00013244,-0.00061212,0.00003145,0.00102549,0.0000957
 7,-0.00069612,0.00018318,0.00202401,-0.01661936,-0.01183446,-0.0015527
 8,0.01565711,0.01156121,-0.01403251,0.13408097,0.14355231,-0.00026400,
 -0.00000011,0.00029370,0.00053031,-0.00000278,0.00021953,-0.00047167,0
 .00000256,0.00034543,0.00035920,0.00000186,0.00253014,0.00035137,0.000
 00233,-0.00036086,0.00031046,0.00000023,0.00009978,-0.00016188,-0.0000
 0105,-0.00015709,0.00000844,-0.00000019,-0.00006385,0.00076735,-0.0000
 0288,-0.00008500,0.00004674,-0.00000056,-0.00001951,-0.28549430,-0.000
 23298,-0.08063712,0.00003494,0.00000009,-0.00005466,0.00002927,0.00000
 028,-0.00017984,0.00016667,0.00023294,0.00000550,0.00016674,-0.0002322
 1,0.00000639,0.30959185,0.00000139,0.00033743,0.00000309,-0.00000506,0
 .00122733,0.00000461,0.00003795,-0.00157085,0.00002203,0.00000081,-0.0
 0010727,-0.00000206,0.00000001,-0.00023042,-0.00000101,0.00000165,0.00
 005997,-0.00000071,0.00000077,-0.00057586,-0.00000012,-0.00000002,-0.0
 0003523,-0.00000013,0.00000024,0.00037149,-0.00000050,0.,0.00001695,0.
 00000003,-0.00023453,-0.04696457,-0.00010307,-0.00000001,-0.00014547,0
 .00000066,-0.00000023,0.00028743,0.00000011,0.00023485,0.00019741,-0.0
 0009866,-0.00023388,0.00019900,0.00009811,0.00028308,0.04529362,-0.001
 82868,0.00000298,0.00005148,0.00167944,0.00000262,-0.00633679,-0.03252
 614,-0.00003983,-0.01119769,-0.00242332,0.00000224,0.00170840,0.000087
 86,0.00000103,-0.00018060,0.00031524,-0.00000040,0.00009869,0.00089058
 ,0.00000019,-0.00019029,0.00000122,0.00000004,0.00003969,0.00130923,-0
 .00000074,-0.00018862,0.00010274,-0.00000014,0.00001538,-0.07632727,-0
 .00009554,-0.07277232,-0.00001214,-0.00000025,-0.00055138,-0.00012062,
 -0.00000031,0.00021741,-0.00001521,-0.00026444,0.00006631,-0.00001611,
 0.00026391,0.00006530,0.08570190,0.00008840,0.08223204,0.00004338,0.00
 021639,0.00050518,-0.00133115,-0.00008513,-0.00107221,0.00039347,-0.00
 275740,0.00247127,0.00027501,0.00020955,0.00057146,-0.00003886,-0.0004
 1076,0.00029032,0.00010679,-0.00002081,-0.00025085,0.00061170,-0.00075
 822,-0.00120947,-0.00001279,0.00001480,0.00004613,0.00032101,0.0004505
 6,-0.00001607,0.00001882,0.00008125,0.00003933,-0.09972407,0.09551678,
 0.04048913,0.00000434,-0.00001046,0.00003610,0.00009028,0.00004082,0.0
 0005313,0.00003763,0.00000563,0.00018663,-0.00025973,0.00045014,0.0001
 3283,-0.01301101,0.02521820,0.01161732,0.10566594,-0.00017584,-0.00019
 320,-0.00004422,0.00122557,0.00098132,-0.00044121,-0.00188822,0.003143
 13,-0.00018747,-0.00067301,-0.00036238,0.00057589,-0.00020349,-0.00021
 810,-0.00005674,0.00006710,-0.00005171,-0.00002423,0.00031648,0.000099
 08,0.00055560,-0.00001210,0.00004609,-0.00000559,-0.00005052,0.0000734
 6,0.00005412,-0.00001648,0.00002895,-0.00000267,0.09541337,-0.21062949
 ,-0.07703123,-0.00002373,0.00000401,-0.00007809,-0.00010081,0.00019632
 ,0.00033786,0.00011628,-0.00057552,-0.00006541,-0.00046517,0.00032426,
 -0.00024260,-0.00059362,0.00085261,0.00146791,-0.10560436,0.22905529,0
 .00037000,0.00100601,0.00002019,0.00129070,0.00065215,0.00039756,0.015
 97659,-0.02557580,-0.01459157,-0.00192295,-0.00031416,-0.00290268,0.00
 040882,0.00149153,-0.00062399,0.00016572,-0.00017956,-0.00030254,-0.00
 004608,-0.00114539,0.00006891,0.00003633,0.00003901,-0.00030665,0.0001
 1970,-0.00058825,0.00000626,-0.00003411,-0.00015369,-0.00000623,0.0425
 4898,-0.07871824,-0.08020951,-0.00008745,-0.00001969,-0.00000527,0.000
 03215,0.00025150,0.00014334,-0.00031215,0.00013204,0.00011645,-0.00081
 640,0.00026749,0.00016662,-0.00383563,0.00903936,0.00347245,-0.0478385
 6,0.08454368,0.09021266,0.00004165,-0.00021834,0.00050536,-0.00133438,
 0.00008410,-0.00107281,0.00038331,0.00274249,0.00247841,0.00027477,-0.
 00020397,0.00057418,-0.00004057,0.00041445,0.00028860,0.00010832,0.000
 02060,-0.00025018,0.00061257,0.00075741,-0.00121439,-0.00001293,-0.000
 01524,0.00004616,0.00031824,-0.00045232,-0.00001551,0.00001866,-0.0000
 8127,0.00003921,-0.09898694,-0.09512401,0.03997511,0.00000422,0.000010
 60,0.00003590,0.00008946,-0.00004115,0.00005500,-0.00025998,-0.0004538
 8,0.00013363,0.00004087,-0.00000453,0.00018969,-0.01296046,-0.02530523
 ,0.01156394,0.00680923,0.01266854,-0.00605565,0.10489396,0.00017639,-0
 .00019140,0.00004575,-0.00123386,0.00098247,0.00043745,0.00184280,0.00
 310919,0.00024384,0.00067922,-0.00036262,-0.00057183,0.00020378,-0.000
 21565,0.00006650,-0.00007041,-0.00005245,0.00002158,-0.00031256,0.0000
 9127,-0.00055789,0.00001195,0.00004644,0.00000662,0.00005193,0.0000710
 6,-0.00005386,0.00001658,0.00002839,0.00000287,-0.09502984,-0.21155377
 ,0.07680729,0.00002388,0.00000404,0.00007823,0.00010013,0.00020011,-0.
 00033676,0.00046697,0.00032313,0.00024035,-0.00011474,-0.00057147,0.00
 006725,0.00054301,0.00078643,-0.00142767,-0.01255697,-0.02277409,0.009
 27201,0.10520174,0.23007892,0.00037233,-0.00101112,0.00002055,0.001288
 65,-0.00064784,0.00039023,0.01588733,0.02566235,-0.01458906,-0.0019193
 9,0.00031164,-0.00287537,0.00039847,-0.00149566,-0.00062683,0.00016789
 ,0.00017998,-0.00030546,-0.00004827,0.00114556,0.00006650,0.00003646,-
 0.00003871,-0.00030483,0.00012046,0.00059065,0.00000577,-0.00003375,0.
 00015430,-0.00000611,0.04204859,0.07852709,-0.07981325,-0.00008748,0.0
 0001988,-0.00000512,0.00003282,-0.00025022,0.00014195,-0.00081483,-0.0
 0026621,0.00016827,-0.00031217,-0.00013419,0.00011736,-0.00380881,-0.0
 0905016,0.00345054,-0.00605164,-0.00935562,0.00434403,-0.04727666,-0.0
 8434172,0.08982083\\-0.00001639,-0.00002572,0.00002087,-0.00000650,0.0
 0001339,-0.00002138,0.00002265,0.00005043,0.00002912,-0.00001210,-0.00
 003500,0.00000502,-0.00000607,0.00000005,-0.00000919,0.00001933,0.0000
 0451,-0.00000487,0.00000353,0.00000969,0.00000557,0.00000125,-0.000001
 87,0.00000393,0.00000226,0.00000542,0.00000103,-0.00000449,-0.00000179
 ,0.00000082,-0.00001035,0.00006351,-0.00003544,0.00000160,0.00000978,-
 0.00000307,-0.00000129,-0.00000728,-0.00000177,0.00000434,-0.00000597,
 -0.00000017,-0.00000567,-0.00000586,-0.00000272,0.00000380,-0.00003686
 ,0.00000632,-0.00000996,-0.00001661,0.00000268,0.00001405,-0.00001983,
 0.00000323\\\@


 You never know when you're making a memory.
                        -- Rickie Lee Jones
 Job cpu time:  0 days  1 hours 33 minutes 17.9 seconds.
 File lengths (MBytes):  RWF=    117 Int=      0 D2E=      0 Chk=     13 Scr=      1
 Normal termination of Gaussian 03 at Tue Apr 17 21:06:42 2012.
