[Molden Format]
[Atoms] Angs
 C     1  6    -1.218088     0.001201    -1.116733
 C     2  6    -1.218088     0.001201     0.284737
 C     3  6     0.010159     0.001201     0.947135
 C     4  6     1.228963     0.000736     0.255033
 C     5  6     1.198553     0.001353    -1.140044
 C     6  6    -0.019819     0.001381    -1.821122
 C     7  6    -2.518941    -0.000487     1.052235
 H     8  1     2.129066     0.002540    -1.698354
 C     9  6     2.536494    -0.004191     1.011184
 H    10  1    -0.030588     0.002534    -2.905791
 H    11  1     0.022100     0.002228     2.033902
 H    12  1    -2.161364     0.002145    -1.654073
 H    13  1    -3.108056    -0.896070     0.830658
 H    14  1    -2.345600     0.026602     2.129920
 H    15  1    -3.135163     0.865079     0.789910
 H    16  1     3.388845     0.049572     0.330897
 H    17  1     2.601180     0.845156     1.698183
 H    18  1     2.644185    -0.914148     1.610198
[FREQ]
  -29.4964
   13.5044
  197.0415
  220.6658
  274.6113
  404.8427
  442.3749
  522.8683
  530.2038
  542.2158
  708.3141
  735.8461
  783.8173
  897.6104
  905.0426
  918.7353
  989.0016
  999.0448
 1012.7334
 1034.8860
 1061.3733
 1061.8883
 1120.8105
 1178.8222
 1196.3316
 1269.1824
 1322.3566
 1345.5081
 1413.1433
 1415.6450
 1448.9667
 1487.0040
 1487.7181
 1490.5535
 1507.1538
 1524.1041
 1627.7076
 1646.7105
 3022.2865
 3022.7974
 3070.4911
 3070.7410
 3100.0378
 3100.6153
 3143.8904
 3152.2733
 3161.0973
 3178.9967
[INT]
    0.1138
    0.1998
    4.3919
    0.0173
    0.5590
    0.3828
    5.5771
    0.6083
    0.0174
    0.0867
   16.0786
    0.0668
   40.6408
    2.9839
    0.0049
    2.9004
    0.0150
    3.6085
    0.2960
    1.2659
    0.2817
    6.0691
    4.8598
    0.0325
    1.2099
    0.4781
    0.5957
    0.0290
    1.5921
    0.9647
    0.1214
   13.5913
    0.6070
    1.0379
   20.1024
   16.9674
    5.0921
   24.0893
   47.2651
   17.3483
   11.0805
   23.8846
   14.9591
   20.5694
   20.7966
    0.9921
   23.8960
   20.9723
[FR-COORD]
 C    -2.301853     0.002270    -2.110319
 C    -2.301853     0.002270     0.538075
 C     0.019198     0.002270     1.789826
 C     2.322403     0.001391     0.481942
 C     2.264937     0.002557    -2.154371
 C    -0.037452     0.002610    -3.441422
 C    -4.760108    -0.000920     1.988436
 H     4.023351     0.004800    -3.209424
 C     4.793279    -0.007920     1.910861
 H    -0.057803     0.004789    -5.491149
 H     0.041763     0.004210     3.843517
 H    -4.084386     0.004053    -3.125745
 H    -5.873374    -1.693327     1.569716
 H    -4.432541     0.050270     4.024965
 H    -5.924599     1.634762     1.492713
 H     6.403988     0.093677     0.625305
 H     4.915517     1.597113     3.209101
 H     4.996785    -1.727489     3.042833
[FR-NORM-COORD]
vibration     1
    0.000000     0.000000     0.020000
    0.000000     0.000000     0.000000
    0.000000     0.000000    -0.030000
    0.000000     0.000000    -0.020000
    0.000000     0.000000     0.000000
    0.000000     0.000000     0.030000
    0.000000     0.000000    -0.020000
    0.000000     0.000000     0.000000
    0.000000     0.000000     0.010000
    0.000000     0.000000     0.040000
    0.000000     0.000000    -0.050000
    0.000000     0.000000     0.040000
    0.020000     0.020000    -0.040000
    0.000000     0.000000     0.000000
   -0.020000    -0.020000    -0.040000
    0.010000    -0.030000    -0.540000
    0.220000    -0.420000     0.340000
   -0.240000     0.460000     0.290000
vibration     2
    0.000000     0.000000     0.030000
    0.000000     0.000000     0.020000
    0.000000     0.000000     0.010000
    0.000000     0.000000    -0.010000
    0.000000     0.000000    -0.010000
    0.000000     0.000000     0.010000
    0.000000     0.000000    -0.020000
    0.000000     0.000000    -0.010000
    0.000000     0.000000    -0.020000
    0.000000     0.000000     0.020000
    0.000000     0.000000     0.010000
    0.000000     0.000000     0.050000
    0.280000     0.420000    -0.310000
   -0.010000    -0.010000     0.530000
   -0.270000    -0.410000    -0.340000
    0.000000     0.000000     0.010000
   -0.010000     0.030000    -0.050000
    0.010000    -0.030000    -0.040000
vibration     3
    0.000000     0.000000    -0.020000
    0.000000     0.000000     0.110000
    0.000000     0.000000     0.280000
    0.000000     0.000000     0.130000
    0.000000     0.000000     0.010000
    0.000000     0.000000    -0.030000
    0.000000     0.000000    -0.160000
    0.000000     0.000000    -0.130000
    0.000000     0.000000    -0.180000
    0.000000     0.000000    -0.140000
    0.000000     0.000000     0.370000
    0.000000     0.000000    -0.170000
    0.130000    -0.160000    -0.210000
    0.000000     0.010000    -0.340000
   -0.120000     0.160000    -0.200000
    0.010000     0.000000    -0.370000
    0.220000     0.040000    -0.220000
   -0.230000    -0.040000    -0.230000
vibration     4
    0.000000     0.000000     0.250000
    0.000000     0.000000     0.100000
    0.000000     0.000000     0.020000
    0.000000     0.000000    -0.080000
    0.000000     0.000000    -0.250000
    0.000000     0.000000    -0.010000
    0.000000     0.000000    -0.140000
    0.000000     0.000000    -0.450000
    0.000000     0.000000     0.120000
    0.000000     0.000000    -0.030000
    0.000000     0.000000     0.020000
    0.000000     0.000000     0.440000
    0.110000    -0.170000    -0.160000
    0.000000     0.010000    -0.330000
   -0.100000     0.160000    -0.160000
   -0.010000     0.000000     0.290000
   -0.170000     0.000000     0.140000
    0.180000     0.010000     0.150000
vibration     5
    0.020000     0.070000     0.000000
    0.000000     0.070000     0.000000
    0.000000     0.110000     0.000000
    0.000000     0.070000     0.000000
   -0.020000     0.070000     0.000000
    0.000000     0.060000     0.000000
   -0.140000    -0.170000     0.000000
   -0.020000     0.080000     0.000000
    0.150000    -0.170000     0.000000
    0.000000     0.060000     0.000000
   -0.010000     0.110000     0.000000
    0.010000     0.080000     0.000000
   -0.090000    -0.320000     0.000000
   -0.410000    -0.130000     0.000000
   -0.080000    -0.330000     0.000000
   -0.020000    -0.380000     0.000000
    0.330000    -0.190000     0.000000
    0.300000    -0.200000     0.000000
vibration     6
   -0.010000     0.130000     0.000000
    0.090000     0.120000     0.000000
    0.130000     0.010000     0.000000
    0.070000    -0.120000     0.000000
   -0.010000    -0.130000     0.000000
   -0.100000     0.000000     0.000000
   -0.040000    -0.120000     0.000000
   -0.070000    -0.220000     0.000000
   -0.060000     0.110000     0.000000
   -0.240000     0.000000     0.000000
    0.270000     0.010000     0.000000
   -0.070000     0.240000     0.000000
    0.020000    -0.300000     0.000000
   -0.350000    -0.080000     0.000000
    0.030000    -0.310000     0.000000
    0.130000     0.350000     0.000000
   -0.260000     0.140000     0.000000
   -0.230000     0.150000     0.000000
vibration     7
    0.000000     0.000000     0.130000
    0.000000     0.000000     0.140000
    0.000000     0.000000    -0.170000
    0.000000     0.000000     0.130000
    0.000000     0.000000     0.140000
    0.000000     0.000000    -0.250000
    0.000000     0.000000    -0.010000
    0.000000     0.000000     0.180000
    0.000000     0.000000    -0.010000
    0.000000     0.000000    -0.630000
    0.000000     0.000000    -0.540000
    0.000000     0.000000     0.140000
    0.110000    -0.070000    -0.060000
   -0.010000     0.000000    -0.080000
   -0.100000     0.060000    -0.060000
    0.010000     0.010000    -0.090000
    0.110000     0.060000    -0.070000
   -0.130000    -0.070000    -0.070000
vibration     8
    0.230000     0.120000     0.020000
   -0.100000     0.150000    -0.040000
   -0.030000     0.000000     0.000000
   -0.090000    -0.140000     0.040000
    0.230000    -0.120000    -0.020000
    0.210000     0.000000     0.000000
   -0.220000     0.150000     0.000000
    0.300000     0.010000    -0.060000
   -0.200000    -0.150000     0.000000
    0.020000     0.000000     0.000000
    0.200000     0.000000     0.000000
    0.310000    -0.020000     0.060000
   -0.250000     0.160000     0.020000
   -0.230000     0.150000     0.030000
   -0.170000     0.110000     0.020000
   -0.180000    -0.130000    -0.030000
   -0.170000    -0.130000    -0.020000
   -0.250000    -0.170000    -0.020000
vibration     9
    0.020000     0.010000    -0.110000
   -0.010000     0.010000     0.280000
    0.000000     0.000000     0.000000
    0.000000    -0.010000    -0.280000
    0.020000    -0.010000     0.100000
    0.020000     0.000000     0.010000
   -0.030000     0.010000     0.000000
    0.030000     0.000000     0.380000
   -0.010000    -0.010000     0.000000
    0.000000     0.000000    -0.010000
    0.020000     0.000000     0.020000
    0.030000     0.000000    -0.420000
    0.230000    -0.150000    -0.130000
   -0.030000     0.020000    -0.180000
   -0.280000     0.180000    -0.130000
   -0.020000    -0.010000     0.170000
   -0.270000    -0.140000     0.130000
    0.260000     0.130000     0.130000
vibration    10
    0.130000     0.030000     0.000000
    0.190000     0.030000     0.010000
   -0.010000     0.220000     0.000000
   -0.200000     0.040000    -0.010000
   -0.120000     0.050000     0.000000
    0.010000    -0.100000     0.000000
    0.260000    -0.110000     0.000000
   -0.020000     0.230000     0.010000
   -0.260000    -0.130000     0.000000
    0.020000    -0.100000     0.010000
   -0.010000     0.220000     0.000000
    0.030000     0.190000    -0.010000
    0.280000    -0.150000     0.000000
    0.200000    -0.100000    -0.010000
    0.270000    -0.140000    -0.010000
   -0.310000    -0.190000     0.010000
   -0.220000    -0.140000     0.000000
   -0.210000    -0.130000     0.010000
vibration    11
    0.000000     0.000000    -0.120000
    0.000000     0.000000     0.150000
    0.000000     0.000000    -0.120000
    0.000000     0.000000     0.150000
    0.000000     0.000000    -0.130000
    0.000000     0.000000     0.170000
    0.000000     0.000000     0.020000
    0.000000     0.000000    -0.530000
    0.000000     0.000000     0.020000
    0.000000     0.000000     0.030000
    0.000000     0.000000    -0.500000
    0.000000     0.000000    -0.520000
    0.120000    -0.060000    -0.040000
    0.000000     0.000000    -0.030000
   -0.110000     0.060000    -0.040000
    0.010000     0.000000    -0.030000
    0.110000     0.070000    -0.040000
   -0.120000    -0.080000    -0.040000
vibration    12
   -0.150000     0.090000     0.000000
   -0.030000    -0.050000     0.000000
   -0.010000    -0.230000     0.000000
    0.030000    -0.050000     0.000000
    0.150000     0.090000     0.000000
    0.000000     0.450000     0.000000
    0.170000    -0.110000     0.000000
    0.040000    -0.080000     0.020000
   -0.170000    -0.130000     0.000000
    0.010000     0.460000     0.010000
   -0.010000    -0.230000     0.010000
   -0.030000    -0.090000     0.010000
    0.190000    -0.170000     0.000000
    0.120000    -0.110000     0.000000
    0.190000    -0.170000    -0.010000
   -0.200000    -0.160000     0.000000
   -0.150000    -0.130000     0.000000
   -0.160000    -0.140000     0.000000
vibration    13
    0.000000     0.000000     0.090000
    0.000000     0.000000    -0.070000
    0.000000     0.000000     0.040000
    0.000000     0.000000    -0.060000
    0.000000     0.000000     0.090000
    0.000000     0.000000     0.060000
    0.000000     0.000000    -0.020000
    0.000000     0.000000    -0.480000
    0.000000     0.000000    -0.020000
    0.000000     0.000000    -0.640000
    0.000000     0.000000    -0.050000
    0.000000     0.000000    -0.470000
   -0.120000     0.070000     0.040000
    0.000000     0.000000     0.070000
    0.120000    -0.070000     0.040000
   -0.010000     0.000000     0.080000
   -0.120000    -0.070000     0.050000
    0.120000     0.070000     0.050000
vibration    14
    0.000000     0.000000     0.010000
    0.000000     0.000000     0.010000
    0.000000     0.000000    -0.150000
    0.000000     0.000000     0.020000
    0.000000     0.000000     0.010000
    0.000000     0.000000     0.030000
    0.000000     0.000000     0.030000
    0.000000     0.000000    -0.080000
    0.000000     0.000000     0.020000
    0.000000     0.000000    -0.210000
    0.000000     0.000000     0.910000
    0.000000     0.000000    -0.050000
    0.130000    -0.060000    -0.050000
    0.000000     0.000000    -0.090000
   -0.130000     0.060000    -0.050000
    0.010000     0.000000    -0.060000
    0.100000     0.070000    -0.040000
   -0.110000    -0.070000    -0.040000
vibration    15
    0.000000     0.000000     0.110000
    0.000000     0.000000    -0.010000
    0.000000     0.000000     0.000000
    0.000000     0.000000     0.010000
    0.000000     0.000000    -0.120000
    0.000000     0.000000     0.010000
    0.000000     0.000000    -0.020000
    0.000000     0.000000     0.680000
    0.000000     0.000000     0.020000
    0.000000     0.000000    -0.030000
    0.000000     0.000000     0.020000
    0.000000     0.000000    -0.660000
   -0.090000     0.050000     0.030000
    0.000000     0.000000     0.050000
    0.090000    -0.050000     0.030000
    0.010000     0.000000    -0.070000
    0.090000     0.070000    -0.040000
   -0.100000    -0.070000    -0.040000
vibration    16
   -0.090000    -0.170000     0.000000
    0.100000    -0.010000     0.000000
    0.190000     0.010000     0.000000
    0.110000     0.010000     0.000000
   -0.080000     0.160000     0.000000
    0.030000     0.000000     0.000000
   -0.120000     0.100000     0.000000
   -0.090000     0.160000    -0.010000
   -0.100000    -0.120000     0.000000
    0.490000     0.000000     0.000000
    0.280000     0.010000    -0.020000
   -0.090000    -0.180000     0.010000
   -0.090000    -0.030000     0.020000
   -0.370000     0.140000     0.000000
   -0.080000    -0.040000    -0.020000
    0.080000     0.120000     0.000000
   -0.350000    -0.070000    -0.020000
   -0.320000    -0.050000     0.020000
vibration    17
    0.000000     0.000000     0.080000
    0.000000     0.000000     0.000000
    0.000000     0.000000    -0.030000
    0.000000     0.000000     0.010000
    0.000000     0.000000     0.070000
    0.000000     0.000000    -0.130000
    0.000000     0.000000     0.000000
    0.000000     0.000000    -0.420000
    0.000000     0.000000    -0.010000
    0.000000     0.000000     0.750000
    0.000000     0.000000     0.100000
    0.000000     0.000000    -0.470000
   -0.020000     0.010000     0.010000
    0.000000     0.000000     0.010000
    0.020000    -0.010000     0.010000
    0.000000     0.000000     0.020000
   -0.020000    -0.020000     0.010000
    0.020000     0.020000     0.010000
vibration    18
    0.040000     0.020000     0.000000
   -0.020000    -0.040000     0.000000
   -0.010000     0.080000     0.000000
    0.020000    -0.030000     0.000000
   -0.040000     0.000000     0.000000
    0.000000     0.060000     0.000000
   -0.050000    -0.100000     0.000000
   -0.080000    -0.060000     0.010000
    0.050000    -0.080000     0.000000
   -0.020000     0.070000     0.000000
   -0.020000     0.090000    -0.010000
    0.070000    -0.020000     0.000000
   -0.120000     0.290000    -0.040000
    0.510000    -0.180000     0.000000
   -0.150000     0.300000     0.050000
    0.370000     0.330000     0.000000
   -0.320000     0.010000    -0.040000
   -0.280000     0.040000     0.040000
vibration    19
   -0.240000    -0.170000     0.000000
   -0.010000     0.020000     0.000000
   -0.090000     0.310000     0.000000
   -0.030000    -0.040000     0.000000
    0.270000    -0.150000     0.000000
    0.000000     0.040000     0.000000
    0.080000     0.040000     0.000000
    0.290000    -0.130000     0.000000
    0.050000    -0.050000     0.000000
   -0.030000     0.020000     0.000000
   -0.180000     0.320000    -0.010000
   -0.200000    -0.260000    -0.010000
    0.120000    -0.200000     0.030000
   -0.270000     0.090000     0.000000
    0.120000    -0.200000    -0.030000
    0.260000     0.220000     0.000000
   -0.150000     0.020000    -0.030000
   -0.140000     0.030000     0.030000
vibration    20
    0.080000     0.020000     0.000000
   -0.040000     0.040000     0.000000
   -0.110000    -0.080000     0.000000
   -0.020000    -0.030000     0.000000
   -0.070000     0.060000     0.000000
    0.000000    -0.010000     0.000000
    0.080000     0.070000     0.000000
   -0.020000     0.140000     0.010000
    0.100000    -0.070000     0.000000
   -0.010000    -0.010000     0.000000
   -0.260000    -0.080000     0.000000
    0.140000    -0.070000     0.000000
    0.150000    -0.280000     0.040000
   -0.380000     0.140000     0.000000
    0.170000    -0.290000    -0.040000
    0.420000     0.340000     0.010000
   -0.290000     0.020000    -0.050000
   -0.240000     0.070000     0.050000
vibration    21
    0.000000     0.000000    -0.030000
    0.000000     0.000000     0.080000
    0.000000     0.000000     0.010000
    0.000000     0.000000    -0.120000
    0.000000     0.000000     0.040000
    0.000000     0.000000     0.000000
    0.000000     0.000000    -0.090000
    0.000000     0.000000    -0.160000
    0.000000     0.000000     0.130000
    0.000000     0.000000     0.000000
   -0.010000     0.000000     0.000000
    0.000000     0.000000     0.100000
   -0.340000     0.140000     0.100000
    0.000000    -0.010000     0.190000
    0.330000    -0.130000     0.110000
    0.040000     0.010000    -0.260000
    0.360000     0.300000    -0.150000
   -0.410000    -0.310000    -0.140000
vibration    22
    0.000000     0.000000     0.030000
    0.000000     0.000000    -0.120000
    0.000000     0.000000     0.060000
    0.000000     0.000000    -0.090000
    0.000000     0.000000     0.020000
    0.000000     0.000000     0.000000
    0.000000     0.000000     0.120000
    0.000000     0.000000    -0.080000
    0.000000     0.000000     0.090000
    0.000000     0.000000    -0.010000
    0.000000     0.000000    -0.240000
    0.000000     0.000000    -0.090000
    0.460000    -0.190000    -0.140000
   -0.010000     0.010000    -0.260000
   -0.440000     0.170000    -0.150000
    0.020000     0.010000    -0.190000
    0.260000     0.210000    -0.110000
   -0.290000    -0.220000    -0.100000
vibration    23
   -0.090000     0.060000     0.000000
    0.000000     0.020000     0.000000
    0.000000    -0.070000     0.000000
    0.020000     0.030000     0.000000
    0.100000     0.070000     0.000000
   -0.010000    -0.120000     0.000000
   -0.010000    -0.040000     0.000000
    0.380000     0.530000     0.000000
    0.010000    -0.040000     0.000000
   -0.040000    -0.130000     0.000000
   -0.050000    -0.070000     0.000000
   -0.370000     0.530000     0.000000
   -0.020000     0.070000    -0.020000
    0.140000    -0.060000     0.000000
   -0.020000     0.070000     0.020000
    0.100000     0.080000     0.000000
   -0.120000    -0.010000    -0.020000
   -0.110000     0.000000     0.020000
vibration    24
   -0.060000     0.010000     0.000000
   -0.110000     0.080000     0.000000
    0.000000     0.000000     0.000000
   -0.110000    -0.080000     0.000000
   -0.050000     0.000000     0.000000
    0.070000     0.000000     0.000000
    0.050000    -0.040000     0.000000
   -0.010000     0.070000     0.000000
    0.060000     0.040000     0.000000
    0.660000    -0.010000     0.000000
    0.660000     0.000000     0.000000
   -0.070000     0.020000     0.000000
    0.070000    -0.040000    -0.010000
    0.130000    -0.060000     0.000000
    0.070000    -0.040000     0.010000
    0.090000     0.070000     0.000000
    0.090000     0.030000     0.000000
    0.090000     0.030000     0.000000
vibration    25
   -0.010000     0.040000     0.000000
    0.030000    -0.030000     0.000000
   -0.040000     0.000000     0.000000
    0.020000     0.020000     0.000000
    0.000000    -0.040000     0.000000
    0.050000     0.000000     0.000000
   -0.010000     0.010000     0.000000
   -0.240000    -0.440000     0.000000
   -0.010000    -0.010000     0.000000
    0.550000     0.000000     0.000000
   -0.400000     0.000000     0.000000
   -0.250000     0.460000     0.000000
   -0.010000     0.000000     0.000000
   -0.060000     0.020000     0.000000
   -0.010000     0.010000     0.000000
   -0.010000    -0.010000     0.000000
   -0.030000     0.000000     0.000000
   -0.030000     0.000000     0.000000
vibration    26
   -0.010000     0.000000     0.000000
   -0.230000     0.210000     0.000000
   -0.040000     0.010000     0.000000
    0.280000     0.110000     0.000000
    0.040000     0.060000     0.000000
   -0.030000    -0.160000     0.000000
    0.080000    -0.070000     0.000000
   -0.230000    -0.430000     0.000000
   -0.090000    -0.040000     0.000000
    0.130000    -0.170000     0.000000
   -0.040000     0.030000     0.000000
    0.190000    -0.380000     0.000000
    0.150000    -0.070000    -0.040000
    0.300000    -0.110000     0.000000
    0.140000    -0.080000     0.040000
   -0.200000    -0.170000     0.000000
   -0.170000    -0.070000     0.020000
   -0.160000    -0.080000    -0.030000
vibration    27
   -0.040000     0.090000     0.000000
   -0.130000    -0.170000     0.000000
    0.100000     0.000000     0.000000
   -0.050000     0.230000     0.000000
   -0.010000    -0.070000     0.000000
    0.130000    -0.030000     0.000000
    0.040000     0.040000     0.000000
   -0.150000    -0.310000     0.000000
    0.010000    -0.060000     0.000000
   -0.470000    -0.030000     0.000000
    0.530000     0.010000     0.000000
   -0.080000     0.160000     0.000000
    0.010000    -0.170000     0.070000
   -0.120000     0.060000     0.000000
    0.020000    -0.170000    -0.070000
    0.100000     0.060000     0.010000
   -0.200000     0.050000    -0.070000
   -0.190000     0.070000     0.060000
vibration    28
    0.090000    -0.120000     0.000000
    0.040000     0.000000     0.000000
   -0.140000     0.000000     0.000000
    0.010000    -0.030000     0.000000
    0.080000     0.120000     0.000000
   -0.070000     0.010000     0.000000
   -0.010000     0.020000     0.000000
   -0.230000    -0.410000     0.000000
    0.010000     0.000000     0.000000
   -0.270000     0.010000     0.000000
    0.610000    -0.010000     0.000000
   -0.240000     0.450000     0.000000
   -0.010000    -0.010000     0.010000
   -0.010000     0.010000     0.000000
   -0.010000    -0.010000    -0.010000
    0.000000    -0.010000     0.000000
   -0.010000     0.000000     0.000000
   -0.010000     0.000000     0.000000
vibration    29
    0.000000     0.000000     0.000000
   -0.010000     0.000000     0.000000
    0.000000     0.010000     0.000000
   -0.010000    -0.020000     0.000000
   -0.010000     0.000000     0.000000
    0.000000     0.010000     0.000000
    0.060000    -0.030000     0.000000
    0.030000     0.050000     0.000000
    0.100000     0.070000     0.000000
    0.010000     0.010000     0.000000
    0.020000     0.010000     0.000000
   -0.010000     0.020000     0.000000
   -0.210000     0.130000     0.130000
   -0.240000     0.030000     0.000000
   -0.200000     0.130000    -0.130000
   -0.270000    -0.380000     0.020000
   -0.420000    -0.210000     0.240000
   -0.410000    -0.230000    -0.240000
vibration    30
    0.000000     0.000000     0.000000
   -0.020000     0.020000     0.000000
    0.000000     0.000000     0.000000
    0.020000     0.010000     0.000000
    0.000000     0.010000     0.000000
    0.000000    -0.010000     0.000000
    0.120000    -0.060000     0.000000
   -0.020000    -0.030000     0.000000
   -0.060000    -0.040000     0.000000
    0.010000    -0.010000     0.000000
    0.020000    -0.010000     0.000000
    0.020000    -0.030000     0.000000
   -0.390000     0.270000     0.230000
   -0.460000     0.040000    -0.010000
   -0.390000     0.280000    -0.230000
    0.130000     0.190000    -0.010000
    0.210000     0.100000    -0.120000
    0.210000     0.110000     0.120000
vibration    31
    0.070000    -0.010000     0.000000
   -0.140000    -0.120000     0.000000
    0.000000     0.110000     0.000000
    0.150000    -0.100000     0.000000
   -0.070000    -0.020000     0.000000
    0.000000     0.050000     0.000000
    0.040000     0.060000     0.000000
    0.150000     0.360000     0.000000
   -0.070000     0.030000     0.000000
    0.010000     0.060000     0.000000
    0.010000     0.120000     0.000000
   -0.140000     0.360000     0.000000
   -0.140000    -0.300000     0.190000
    0.160000     0.020000     0.020000
   -0.130000    -0.280000    -0.210000
    0.050000     0.150000    -0.030000
    0.170000    -0.230000     0.190000
    0.190000    -0.260000    -0.160000
vibration    32
    0.000000     0.000000     0.000000
    0.000000     0.000000    -0.010000
    0.000000     0.000000     0.000000
    0.000000     0.000000    -0.020000
    0.000000     0.000000     0.000000
    0.000000     0.000000     0.000000
    0.000000     0.000000    -0.030000
    0.000000     0.000000     0.010000
    0.000000     0.000000    -0.050000
    0.010000     0.000000     0.000000
    0.000000     0.000000     0.000000
    0.010000     0.000000     0.000000
    0.030000    -0.270000     0.030000
    0.000000    -0.010000     0.380000
   -0.060000     0.250000     0.020000
   -0.010000     0.040000     0.600000
    0.390000    -0.140000     0.060000
   -0.390000     0.140000     0.030000
vibration    33
    0.000000     0.000000     0.000000
    0.000000     0.000000     0.020000
    0.000000     0.000000     0.000000
    0.000000     0.000000    -0.010000
    0.000000     0.000000     0.000000
    0.000000     0.000000     0.000000
    0.000000     0.000000     0.050000
    0.000000     0.000000     0.000000
    0.000000     0.000000    -0.030000
    0.000000     0.000000     0.000000
    0.000000     0.000000    -0.010000
    0.000000     0.000000     0.010000
   -0.070000     0.400000    -0.030000
    0.020000     0.010000    -0.600000
    0.070000    -0.410000    -0.050000
    0.000000     0.030000     0.380000
    0.250000    -0.100000     0.050000
   -0.240000     0.070000     0.010000
vibration    34
    0.020000     0.020000     0.000000
    0.020000    -0.020000     0.000000
   -0.020000     0.000000     0.000000
    0.010000     0.010000     0.000000
    0.020000    -0.020000     0.000000
   -0.070000     0.000000     0.000000
    0.000000     0.040000     0.000000
    0.080000     0.070000     0.000000
    0.030000    -0.030000     0.000000
    0.210000     0.000000     0.000000
    0.070000     0.000000     0.000000
    0.070000    -0.050000     0.000000
   -0.250000    -0.240000     0.230000
    0.290000    -0.020000    -0.010000
   -0.230000    -0.260000    -0.250000
   -0.180000    -0.270000     0.000000
   -0.120000     0.330000    -0.270000
   -0.110000     0.350000     0.230000
vibration    35
    0.040000    -0.030000     0.000000
   -0.070000    -0.030000     0.000000
   -0.010000     0.040000     0.000000
    0.070000    -0.040000     0.000000
   -0.050000    -0.030000     0.000000
    0.020000     0.040000     0.000000
    0.010000    -0.030000     0.000000
    0.090000     0.200000     0.000000
    0.010000    -0.020000     0.000000
   -0.030000     0.050000     0.000000
    0.030000     0.050000     0.000000
   -0.090000     0.190000     0.000000
    0.250000     0.230000    -0.220000
   -0.330000     0.040000    -0.010000
    0.250000     0.200000     0.230000
   -0.210000    -0.280000     0.030000
   -0.050000     0.310000    -0.250000
   -0.100000     0.340000     0.210000
vibration    36
   -0.050000    -0.100000     0.000000
   -0.040000     0.130000     0.000000
    0.090000     0.000000     0.000000
   -0.050000    -0.110000     0.000000
   -0.050000     0.080000     0.000000
    0.190000     0.010000     0.000000
    0.020000     0.000000     0.000000
   -0.200000    -0.140000     0.000000
    0.020000     0.010000     0.000000
   -0.530000     0.010000     0.000000
   -0.420000     0.000000     0.000000
   -0.230000     0.190000     0.000000
   -0.150000    -0.140000     0.140000
    0.260000    -0.050000     0.010000
   -0.150000    -0.130000    -0.150000
   -0.090000    -0.130000     0.010000
    0.020000     0.160000    -0.120000
    0.000000     0.180000     0.100000
vibration    37
   -0.120000     0.290000     0.000000
   -0.010000    -0.260000     0.000000
    0.000000     0.110000     0.000000
    0.010000    -0.290000     0.000000
    0.100000     0.300000     0.000000
    0.030000    -0.160000     0.000000
   -0.010000     0.020000     0.000000
   -0.300000    -0.360000     0.000000
    0.010000     0.030000     0.000000
   -0.050000    -0.180000     0.000000
   -0.020000     0.110000     0.000000
    0.260000    -0.370000     0.000000
    0.070000     0.020000    -0.050000
   -0.160000     0.050000    -0.010000
    0.080000     0.010000     0.050000
   -0.130000    -0.150000     0.010000
    0.060000     0.140000    -0.090000
    0.050000     0.140000     0.080000
vibration    38
    0.190000    -0.100000     0.000000
   -0.260000    -0.030000     0.000000
    0.360000     0.010000     0.000000
   -0.230000     0.000000     0.000000
    0.180000     0.110000     0.000000
   -0.300000     0.000000     0.000000
    0.030000     0.000000     0.000000
   -0.020000    -0.250000     0.000000
    0.030000     0.000000     0.000000
    0.320000     0.000000     0.000000
   -0.520000     0.020000     0.000000
   -0.020000     0.280000     0.000000
    0.110000     0.010000    -0.060000
   -0.110000     0.020000     0.000000
    0.110000     0.000000     0.060000