 Entering Gaussian System, Link 0=/usr/local/g03/g03
 Initial command:
 /usr/local/g03/l1.exe /scratch/chaquin/31674.calcul.lct.jussieu.fr/Gau-16225.inp -scrdir=/scratch/chaquin/31674.calcul.lct.jussieu.fr/
 Entering Link 1 = /usr/local/g03/l1.exe PID=     16743.
  
 Copyright (c) 1988,1990,1992,1993,1995,1998,2003,2004, Gaussian, Inc.
                  All Rights Reserved.
  
 This is the Gaussian(R) 03 program.  It is based on the
 the Gaussian(R) 98 system (copyright 1998, Gaussian, Inc.),
 the Gaussian(R) 94 system (copyright 1995, Gaussian, Inc.),
 the Gaussian 92(TM) system (copyright 1992, Gaussian, Inc.),
 the Gaussian 90(TM) system (copyright 1990, Gaussian, Inc.),
 the Gaussian 88(TM) system (copyright 1988, Gaussian, Inc.),
 the Gaussian 86(TM) system (copyright 1986, Carnegie Mellon
 University), and the Gaussian 82(TM) system (copyright 1983,
 Carnegie Mellon University). Gaussian is a federally registered
 trademark of Gaussian, Inc.
  
 This software contains proprietary and confidential information,
 including trade secrets, belonging to Gaussian, Inc.
  
 This software is provided under written license and may be
 used, copied, transmitted, or stored only in accord with that
 written license.
  
 The following legend is applicable only to US Government
 contracts under FAR:
  
                    RESTRICTED RIGHTS LEGEND
  
 Use, reproduction and disclosure by the US Government is
 subject to restrictions as set forth in subparagraphs (a)
 and (c) of the Commercial Computer Software - Restricted
 Rights clause in FAR 52.227-19.
  
 Gaussian, Inc.
 340 Quinnipiac St., Bldg. 40, Wallingford CT 06492
  
  
 ---------------------------------------------------------------
 Warning -- This program may not be used in any manner that
 competes with the business of Gaussian, Inc. or will provide
 assistance to any competitor of Gaussian, Inc.  The licensee
 of this program is prohibited from giving any competitor of
 Gaussian, Inc. access to this program.  By using this program,
 the user acknowledges that Gaussian, Inc. is engaged in the
 business of creating and licensing software in the field of
 computational chemistry and represents and warrants to the
 licensee that it is not a competitor of Gaussian, Inc. and that
 it will not use this program in any manner prohibited above.
 ---------------------------------------------------------------
  

 Cite this work as:
 Gaussian 03, Revision C.02,
 M. J. Frisch, G. W. Trucks, H. B. Schlegel, G. E. Scuseria, 
 M. A. Robb, J. R. Cheeseman, J. A. Montgomery, Jr., T. Vreven, 
 K. N. Kudin, J. C. Burant, J. M. Millam, S. S. Iyengar, J. Tomasi, 
 V. Barone, B. Mennucci, M. Cossi, G. Scalmani, N. Rega, 
 G. A. Petersson, H. Nakatsuji, M. Hada, M. Ehara, K. Toyota, 
 R. Fukuda, J. Hasegawa, M. Ishida, T. Nakajima, Y. Honda, O. Kitao, 
 H. Nakai, M. Klene, X. Li, J. E. Knox, H. P. Hratchian, J. B. Cross, 
 C. Adamo, J. Jaramillo, R. Gomperts, R. E. Stratmann, O. Yazyev, 
 A. J. Austin, R. Cammi, C. Pomelli, J. W. Ochterski, P. Y. Ayala, 
 K. Morokuma, G. A. Voth, P. Salvador, J. J. Dannenberg, 
 V. G. Zakrzewski, S. Dapprich, A. D. Daniels, M. C. Strain, 
 O. Farkas, D. K. Malick, A. D. Rabuck, K. Raghavachari, 
 J. B. Foresman, J. V. Ortiz, Q. Cui, A. G. Baboul, S. Clifford, 
 J. Cioslowski, B. B. Stefanov, G. Liu, A. Liashenko, P. Piskorz, 
 I. Komaromi, R. L. Martin, D. J. Fox, T. Keith, M. A. Al-Laham, 
 C. Y. Peng, A. Nanayakkara, M. Challacombe, P. M. W. Gill, 
 B. Johnson, W. Chen, M. W. Wong, C. Gonzalez, and J. A. Pople, 
 Gaussian, Inc., Wallingford CT, 2004.
 
 ******************************************
 Gaussian 03:  AM64L-G03RevC.02 12-Jun-2004
                17-Apr-2012 
 ******************************************
 %chk=geom
 ----------------------------------------------------
 # B3LYP 6-311+G** geom=checkpoint freq pop=none test
 ----------------------------------------------------
 1/10=4,29=2,30=1,38=1/1,3;
 2/40=1/2;
 3/5=4,6=6,7=111,11=2,16=1,25=1,30=1,74=-5/1,2,3;
 4//1;
 5/5=2,38=5/2;
 8/6=4,10=90,11=11/1;
 11/6=1,8=1,9=11,15=111,16=1/1,2,10;
 10/6=1/2;
 7/8=1,10=1,25=1/1,2,3,16;
 1/10=4,30=1/3;
 99//99;
 ----------------------------------
 *** Vibrations 1,2-xylene **** 0 1
 ----------------------------------
 Z-Matrix taken from the checkpoint file:
 geom.chk
 Charge =  0 Multiplicity = 1
 C
 C,1,cc2
 C,2,cc3,1,ccc3
 C,3,cc4,2,ccc4,1,dih4,0
 C,4,cc5,3,ccc5,2,dih5,0
 C,5,cc6,4,ccc6,3,dih6,0
 C,2,cc7,3,ccc7,4,dih7,0
 H,5,hc8,4,hcc8,3,dih8,0
 C,4,cc9,3,ccc9,2,dih9,0
 H,6,hc10,5,hcc10,4,dih10,0
 H,3,hc11,2,hcc11,1,dih11,0
 H,1,hc12,2,hcc12,3,dih12,0
 H,7,hc13,2,hcc13,3,dih13,0
 H,7,hc14,2,hcc14,3,dih14,0
 H,7,hc15,2,hcc15,3,dih15,0
 H,9,hc16,4,hcc16,3,dih16,0
 H,9,hc17,4,hcc17,16,dih17,0
 H,9,hc18,4,hcc18,16,dih18,0
      Variables:
 cc2=1.40146936
 cc3=1.39547857
 ccc3=118.33814429
 cc4=1.40160187
 ccc4=122.07166099
 dih4=-0.0224244
 cc5=1.39540872
 ccc5=118.34143376
 dih5=0.05095139
 cc6=1.39581482
 ccc6=120.45424059
 dih6=-0.04884058
 cc7=1.51038885
 ccc7=121.1213825
 dih7=179.90280329
 hc8=1.0851573
 hcc8=119.71512972
 dih8=179.90707451
 cc9=1.5104386
 ccc9=120.36872173
 dih9=180.21739568
 hc10=1.08472279
 hcc10=119.77428634
 dih10=179.95918046
 hc11=1.08683378
 hcc11=118.96767118
 dih11=179.93811209
 hc12=1.08558971
 hcc12=119.66811657
 dih12=180.05737751
 hc13=1.09463383
 hcc13=111.19706134
 dih13=241.33277618
 hc14=1.09187241
 hcc14=111.39431487
 dih14=1.59060083
 hc15=1.09441747
 hcc15=111.23928325
 dih15=121.93966059
 hc16=1.09187177
 hcc16=111.32741494
 dih16=183.01561699
 hc17=1.09432256
 hcc17=111.27949361
 dih17=120.36401957
 hc18=1.09473177
 hcc18=111.21053072
 dih18=239.81465517
 Recover connectivity data from disk.

 GradGradGradGradGradGradGradGradGradGradGradGradGradGradGradGradGradGrad
 Berny optimization.
 Initialization pass.
                       ----------------------------
                       !    Initial Parameters    !
                       ! (Angstroms and Degrees)  !
 ----------------------                            ----------------------
 !      Name          Value   Derivative information (Atomic Units)     !
 ------------------------------------------------------------------------
 !       cc2         1.4015   calculate D2E/DX2 analytically            !
 !       cc3         1.3955   calculate D2E/DX2 analytically            !
 !      ccc3       118.3381   calculate D2E/DX2 analytically            !
 !       cc4         1.4016   calculate D2E/DX2 analytically            !
 !      ccc4       122.0717   calculate D2E/DX2 analytically            !
 !      dih4        -0.0224   calculate D2E/DX2 analytically            !
 !       cc5         1.3954   calculate D2E/DX2 analytically            !
 !      ccc5       118.3414   calculate D2E/DX2 analytically            !
 !      dih5         0.051    calculate D2E/DX2 analytically            !
 !       cc6         1.3958   calculate D2E/DX2 analytically            !
 !      ccc6       120.4542   calculate D2E/DX2 analytically            !
 !      dih6        -0.0488   calculate D2E/DX2 analytically            !
 !       cc7         1.5104   calculate D2E/DX2 analytically            !
 !      ccc7       121.1214   calculate D2E/DX2 analytically            !
 !      dih7       179.9028   calculate D2E/DX2 analytically            !
 !       hc8         1.0852   calculate D2E/DX2 analytically            !
 !      hcc8       119.7151   calculate D2E/DX2 analytically            !
 !      dih8       179.9071   calculate D2E/DX2 analytically            !
 !       cc9         1.5104   calculate D2E/DX2 analytically            !
 !      ccc9       120.3687   calculate D2E/DX2 analytically            !
 !      dih9       180.2174   calculate D2E/DX2 analytically            !
 !      hc10         1.0847   calculate D2E/DX2 analytically            !
 !      hcc10      119.7743   calculate D2E/DX2 analytically            !
 !      dih10      179.9592   calculate D2E/DX2 analytically            !
 !      hc11         1.0868   calculate D2E/DX2 analytically            !
 !      hcc11      118.9677   calculate D2E/DX2 analytically            !
 !      dih11      179.9381   calculate D2E/DX2 analytically            !
 !      hc12         1.0856   calculate D2E/DX2 analytically            !
 !      hcc12      119.6681   calculate D2E/DX2 analytically            !
 !      dih12      180.0574   calculate D2E/DX2 analytically            !
 !      hc13         1.0946   calculate D2E/DX2 analytically            !
 !      hcc13      111.1971   calculate D2E/DX2 analytically            !
 !      dih13      241.3328   calculate D2E/DX2 analytically            !
 !      hc14         1.0919   calculate D2E/DX2 analytically            !
 !      hcc14      111.3943   calculate D2E/DX2 analytically            !
 !      dih14        1.5906   calculate D2E/DX2 analytically            !
 !      hc15         1.0944   calculate D2E/DX2 analytically            !
 !      hcc15      111.2393   calculate D2E/DX2 analytically            !
 !      dih15      121.9397   calculate D2E/DX2 analytically            !
 !      hc16         1.0919   calculate D2E/DX2 analytically            !
 !      hcc16      111.3274   calculate D2E/DX2 analytically            !
 !      dih16      183.0156   calculate D2E/DX2 analytically            !
 !      hc17         1.0943   calculate D2E/DX2 analytically            !
 !      hcc17      111.2795   calculate D2E/DX2 analytically            !
 !      dih17      120.364    calculate D2E/DX2 analytically            !
 !      hc18         1.0947   calculate D2E/DX2 analytically            !
 !      hcc18      111.2105   calculate D2E/DX2 analytically            !
 !      dih18      239.8147   calculate D2E/DX2 analytically            !
 ------------------------------------------------------------------------
 Trust Radius=3.00D-01 FncErr=1.00D-07 GrdErr=1.00D-07
 Number of steps in this run=   2 maximum allowed number of steps=   2.
 GradGradGradGradGradGradGradGradGradGradGradGradGradGradGradGradGradGrad

                          Input orientation:                          
 ---------------------------------------------------------------------
 Center     Atomic     Atomic              Coordinates (Angstroms)
 Number     Number      Type              X           Y           Z
 ---------------------------------------------------------------------
    1          6             0       -1.218088    0.001201   -1.116733
    2          6             0       -1.218088    0.001201    0.284737
    3          6             0        0.010159    0.001201    0.947135
    4          6             0        1.228963    0.000736    0.255033
    5          6             0        1.198553    0.001353   -1.140044
    6          6             0       -0.019819    0.001381   -1.821122
    7          6             0       -2.518941   -0.000487    1.052235
    8          1             0        2.129066    0.002540   -1.698354
    9          6             0        2.536494   -0.004191    1.011184
   10          1             0       -0.030588    0.002534   -2.905791
   11          1             0        0.022100    0.002228    2.033902
   12          1             0       -2.161364    0.002145   -1.654073
   13          1             0       -3.108056   -0.896070    0.830658
   14          1             0       -2.345600    0.026602    2.129920
   15          1             0       -3.135163    0.865079    0.789910
   16          1             0        3.388845    0.049572    0.330897
   17          1             0        2.601180    0.845156    1.698183
   18          1             0        2.644185   -0.914148    1.610198
 ---------------------------------------------------------------------
                    Distance matrix (angstroms):
                    1          2          3          4          5
     1  C    0.000000
     2  C    1.401469   0.000000
     3  C    2.401695   1.395479   0.000000
     4  C    2.805316   2.447231   1.401602   0.000000
     5  C    2.416753   2.805379   2.401790   1.395409   0.000000
     6  C    1.389968   2.422909   2.768419   2.422784   1.395815
     7  C    2.529158   1.510389   2.531283   3.831751   4.315767
     8  H    3.397311   3.890513   3.389451   2.150793   1.085157
     9  C    4.315662   3.824217   2.527152   1.510439   2.533357
    10  H    2.147298   3.404354   3.853141   3.402541   2.151430
    11  H    3.385937   2.144212   1.086834   2.149627   3.384963
    12  H    1.085590   2.156097   3.388479   3.890887   3.399010
    13  H    2.858217   2.162199   3.246833   4.466020   4.820364
    14  H    3.436958   2.162552   2.636138   4.036504   4.822273
    15  H    2.838442   2.162560   3.265587   4.480935   4.822016
    16  H    4.829265   4.607418   3.434765   2.161766   2.638820
    17  H    4.819006   4.158954   2.826610   2.163031   3.276415
    18  H    4.815721   4.184718   2.866289   2.162485   3.239109
                    6          7          8          9         10
     6  C    0.000000
     7  C    3.808122   0.000000
     8  H    2.152390   5.400899   0.000000
     9  C    3.815328   5.055602   2.740007   0.000000
    10  H    1.084723   4.675241   2.474269   4.683230   0.000000
    11  H    3.855253   2.724071   4.285912   2.714437   4.939974
    12  H    2.148050   2.729830   4.290658   5.401250   2.471236
    13  H    4.168280   1.094634   5.884798   5.717427   4.923347
    14  H    4.584826   1.091872   5.888879   5.008728   5.542404
    15  H    4.155579   1.094417   5.886216   5.742150   4.903119
    16  H    4.031439   5.951871   2.388957   1.091872   4.708597
    17  H    4.468457   5.229531   3.531198   1.094323   5.369617
    18  H    4.439491   5.272947   3.471625   1.094732   5.328122
                   11         12         13         14         15
    11  H    0.000000
    12  H    4.285869   0.000000
    13  H    3.471687   2.806582   0.000000
    14  H    2.369771   3.788554   1.766563   0.000000
    15  H    3.501477   2.768753   1.761829   1.766941   0.000000
    16  H    3.773253   5.894673   6.584354   6.010064   6.590784
    17  H    2.734024   5.884735   6.031570   5.032600   5.807839
    18  H    2.809733   5.881187   5.804851   5.104222   6.102409
                   16         17         18
    16  H    0.000000
    17  H    1.767156   0.000000
    18  H    1.766320   1.762028   0.000000
 Stoichiometry    C8H10
 Framework group  C1[X(C8H10)]
 Deg. of freedom    48
 Full point group                 C1      NOp   1
 Largest Abelian subgroup         C1      NOp   1
 Largest concise Abelian subgroup C1      NOp   1
                         Standard orientation:                         
 ---------------------------------------------------------------------
 Center     Atomic     Atomic              Coordinates (Angstroms)
 Number     Number      Type              X           Y           Z
 ---------------------------------------------------------------------
    1          6             0        1.209890    1.125610    0.000714
    2          6             0        1.220138   -0.275822   -0.000789
    3          6             0       -0.003232   -0.947182   -0.002223
    4          6             0       -1.227065   -0.264011   -0.001733
    5          6             0       -1.206856    1.131251   -0.000836
    6          6             0        0.006503    1.821219    0.000584
    7          6             0        2.526567   -1.033790    0.000841
    8          1             0       -2.141426    1.682744   -0.001971
    9          6             0       -2.529034   -1.029707    0.001614
   10          1             0        0.009341    2.905938    0.000601
   11          1             0       -0.007226   -2.034006   -0.004423
   12          1             0        2.149212    1.669833    0.000901
   13          1             0        3.113526   -0.808875    0.897008
   14          1             0        2.361127   -2.112683   -0.027506
   15          1             0        3.141357   -0.766034   -0.864081
   16          1             0       -3.386305   -0.355612   -0.051921
   17          1             0       -2.588202   -1.716245   -0.848508
   18          1             0       -2.632871   -1.630472    0.910864
 ---------------------------------------------------------------------
 Rotational constants (GHZ):      3.5758683      1.7586583      1.1963360
 Standard basis: 6-311+G(d,p) (5D, 7F)
 There are   236 symmetry adapted basis functions of A   symmetry.
 Integral buffers will be    131072 words long.
 Raffenetti 2 integral format.
 Two-electron integral symmetry is turned on.
   236 basis functions,   368 primitive gaussians,   244 cartesian basis functions
    29 alpha electrons       29 beta electrons
       nuclear repulsion energy       340.8168903612 Hartrees.
 NAtoms=   18 NActive=   18 NUniq=   18 SFac= 1.00D+00 NAtFMM=   60 Big=F
 One-electron integrals computed using PRISM.
 NBasis=   236 RedAO= T  NBF=   236
 NBsUse=   236 1.00D-06 NBFU=   236
 Harris functional with IExCor=  402 diagonalized for initial guess.
 ExpMin= 4.38D-02 ExpMax= 4.56D+03 ExpMxC= 6.82D+02 IAcc=2 IRadAn=         4 AccDes= 0.00D+00
 HarFok:  IExCor= 402 AccDes= 0.00D+00 IRadAn=         4 IDoV=1
 ScaDFX=  1.000000  1.000000  1.000000  1.000000
 Initial guess orbital symmetries:
       Occupied  (A) (A) (A) (A) (A) (A) (A) (A) (A) (A) (A) (A)
                 (A) (A) (A) (A) (A) (A) (A) (A) (A) (A) (A) (A)
                 (A) (A) (A) (A) (A)
       Virtual   (A) (A) (A) (A) (A) (A) (A) (A) (A) (A) (A) (A)
                 (A) (A) (A) (A) (A) (A) (A) (A) (A) (A) (A) (A)
                 (A) (A) (A) (A) (A) (A) (A) (A) (A) (A) (A) (A)
                 (A) (A) (A) (A) (A) (A) (A) (A) (A) (A) (A) (A)
                 (A) (A) (A) (A) (A) (A) (A) (A) (A) (A) (A) (A)
                 (A) (A) (A) (A) (A) (A) (A) (A) (A) (A) (A) (A)
                 (A) (A) (A) (A) (A) (A) (A) (A) (A) (A) (A) (A)
                 (A) (A) (A) (A) (A) (A) (A) (A) (A) (A) (A) (A)
                 (A) (A) (A) (A) (A) (A) (A) (A) (A) (A) (A) (A)
                 (A) (A) (A) (A) (A) (A) (A) (A) (A) (A) (A) (A)
                 (A) (A) (A) (A) (A) (A) (A) (A) (A) (A) (A) (A)
                 (A) (A) (A) (A) (A) (A) (A) (A) (A) (A) (A) (A)
                 (A) (A) (A) (A) (A) (A) (A) (A) (A) (A) (A) (A)
                 (A) (A) (A) (A) (A) (A) (A) (A) (A) (A) (A) (A)
                 (A) (A) (A) (A) (A) (A) (A) (A) (A) (A) (A) (A)
                 (A) (A) (A) (A) (A) (A) (A) (A) (A) (A) (A) (A)
                 (A) (A) (A) (A) (A) (A) (A) (A) (A) (A) (A) (A)
                 (A) (A) (A)
 The electronic state of the initial guess is 1-A.
 Requested convergence on RMS density matrix=1.00D-08 within 128 cycles.
 Requested convergence on MAX density matrix=1.00D-06.
 Requested convergence on             energy=1.00D-06.
 No special actions if energy rises.
 SCF Done:  E(RB+HF-LYP) =  -310.966237175     A.U. after   13 cycles
             Convg  =    0.2110D-08             -V/T =  2.0049
             S**2   =   0.0000
 Range of M.O.s used for correlation:     1   236
 NBasis=   236 NAE=    29 NBE=    29 NFC=     0 NFV=     0
 NROrb=    236 NOA=    29 NOB=    29 NVA=   207 NVB=   207

 **** Warning!!: The largest alpha MO coefficient is  0.21147596D+03

 Symmetrizing basis deriv contribution to polar:
 IMax=3 JMax=2 DiffMx= 0.00D+00
 G2DrvN: will do   19 centers at a time, making    1 passes doing MaxLOS=2.
 FoFDir/FoFCou used for L=0 through L=2.
 DoAtom=TTTTTTTTTTTTTTTTTT
          Differentiating once with respect to electric field.
                with respect to dipole field.
          Differentiating once with respect to nuclear coordinates.
 Integrals replicated using symmetry in FoFDir.
 MinBra= 0 MaxBra= 2 Meth= 1.
 IRaf=       0 NMat=  57 IRICut=      57 DoRegI=T DoRafI=T ISym2E= 2 JSym2E=2.
          There are  57 degrees of freedom in the 1st order CPHF.
    54 vectors were produced by pass  0.
 AX will form  54 AO Fock derivatives at one time.
    54 vectors were produced by pass  1.
    54 vectors were produced by pass  2.
    54 vectors were produced by pass  3.
    54 vectors were produced by pass  4.
    40 vectors were produced by pass  5.
    15 vectors were produced by pass  6.
    15 vectors were produced by pass  7.
    13 vectors were produced by pass  8.
     5 vectors were produced by pass  9.
     2 vectors were produced by pass 10.
     2 vectors were produced by pass 11.
 Inv2:  IOpt= 1 Iter= 1 AM= 6.40D-15 Conv= 1.00D-12.
 Inverted reduced A of dimension  362 with in-core refinement.
 Isotropic polarizability for W=    0.000000       92.93 Bohr**3.
 End of Minotr Frequency-dependent properties file   721 does not exist.
 Full mass-weighted force constant matrix:
 Low frequencies ---  -30.4013   -0.0007    0.0005    0.0007    8.7869   10.1949
 Low frequencies ---   12.9713   15.2276  197.0427
 ******    1 imaginary frequencies (negative Signs) ****** 
 Diagonal vibrational polarizability:
        1.2391326       1.1754213      39.5234813
 Harmonic frequencies (cm**-1), IR intensities (KM/Mole), Raman scattering
 activities (A**4/AMU), depolarization ratios for plane and unpolarized
 incident light, reduced masses (AMU), force constants (mDyne/A),
 and normal coordinates:
                     1                      2                      3
                     A                      A                      A
 Frequencies --   -29.4964                13.5044               197.0415
 Red. masses --     1.0380                 1.0343                 2.8612
 Frc consts  --     0.0005                 0.0001                 0.0655
 IR Inten    --     0.1138                 0.1998                 4.3919
 Atom AN      X      Y      Z        X      Y      Z        X      Y      Z
   1   6     0.00   0.00   0.02     0.00   0.00   0.03     0.00   0.00  -0.02
   2   6     0.00   0.00   0.00     0.00   0.00   0.02     0.00   0.00   0.11
   3   6     0.00   0.00  -0.03     0.00   0.00   0.01     0.00   0.00   0.28
   4   6     0.00   0.00  -0.02     0.00   0.00  -0.01     0.00   0.00   0.13
   5   6     0.00   0.00   0.00     0.00   0.00  -0.01     0.00   0.00   0.01
   6   6     0.00   0.00   0.03     0.00   0.00   0.01     0.00   0.00  -0.03
   7   6     0.00   0.00  -0.02     0.00   0.00  -0.02     0.00   0.00  -0.16
   8   1     0.00   0.00   0.00     0.00   0.00  -0.01     0.00   0.00  -0.13
   9   6     0.00   0.00   0.01     0.00   0.00  -0.02     0.00   0.00  -0.18
  10   1     0.00   0.00   0.04     0.00   0.00   0.02     0.00   0.00  -0.14
  11   1     0.00   0.00  -0.05     0.00   0.00   0.01     0.00   0.00   0.37
  12   1     0.00   0.00   0.04     0.00   0.00   0.05     0.00   0.00  -0.17
  13   1     0.02   0.02  -0.04     0.28   0.42  -0.31     0.13  -0.16  -0.21
  14   1     0.00   0.00   0.00    -0.01  -0.01   0.53     0.00   0.01  -0.34
  15   1    -0.02  -0.02  -0.04    -0.27  -0.41  -0.34    -0.12   0.16  -0.20
  16   1     0.01  -0.03  -0.54     0.00   0.00   0.01     0.01   0.00  -0.37
  17   1     0.22  -0.42   0.34    -0.01   0.03  -0.05     0.22   0.04  -0.22
  18   1    -0.24   0.46   0.29     0.01  -0.03  -0.04    -0.23  -0.04  -0.23
                     4                      5                      6
                     A                      A                      A
 Frequencies --   220.6658               274.6113               404.8427
 Red. masses --     2.9471                 2.5354                 2.4776
 Frc consts  --     0.0846                 0.1127                 0.2392
 IR Inten    --     0.0173                 0.5590                 0.3828
 Atom AN      X      Y      Z        X      Y      Z        X      Y      Z
   1   6     0.00   0.00   0.25     0.02   0.07   0.00    -0.01   0.13   0.00
   2   6     0.00   0.00   0.10     0.00   0.07   0.00     0.09   0.12   0.00
   3   6     0.00   0.00   0.02     0.00   0.11   0.00     0.13   0.01   0.00
   4   6     0.00   0.00  -0.08     0.00   0.07   0.00     0.07  -0.12   0.00
   5   6     0.00   0.00  -0.25    -0.02   0.07   0.00    -0.01  -0.13   0.00
   6   6     0.00   0.00  -0.01     0.00   0.06   0.00    -0.10   0.00   0.00
   7   6     0.00   0.00  -0.14    -0.14  -0.17   0.00    -0.04  -0.12   0.00
   8   1     0.00   0.00  -0.45    -0.02   0.08   0.00    -0.07  -0.22   0.00
   9   6     0.00   0.00   0.12     0.15  -0.17   0.00    -0.06   0.11   0.00
  10   1     0.00   0.00  -0.03     0.00   0.06   0.00    -0.24   0.00   0.00
  11   1     0.00   0.00   0.02    -0.01   0.11   0.00     0.27   0.01   0.00
  12   1     0.00   0.00   0.44     0.01   0.08   0.00    -0.07   0.24   0.00
  13   1     0.11  -0.17  -0.16    -0.09  -0.32   0.00     0.02  -0.30   0.00
  14   1     0.00   0.01  -0.33    -0.41  -0.13   0.00    -0.35  -0.08   0.00
  15   1    -0.10   0.16  -0.16    -0.08  -0.33   0.00     0.03  -0.31   0.00
  16   1    -0.01   0.00   0.29    -0.02  -0.38   0.00     0.13   0.35   0.00
  17   1    -0.17   0.00   0.14     0.33  -0.19   0.00    -0.26   0.14   0.00
  18   1     0.18   0.01   0.15     0.30  -0.20   0.00    -0.23   0.15   0.00
                     7                      8                      9
                     A                      A                      A
 Frequencies --   442.3749               522.8683               530.2038
 Red. masses --     2.7785                 5.0917                 3.0473
 Frc consts  --     0.3204                 0.8202                 0.5047
 IR Inten    --     5.5771                 0.6083                 0.0174
 Atom AN      X      Y      Z        X      Y      Z        X      Y      Z
   1   6     0.00   0.00   0.13     0.23   0.12   0.02     0.02   0.01  -0.11
   2   6     0.00   0.00   0.14    -0.10   0.15  -0.04    -0.01   0.01   0.28
   3   6     0.00   0.00  -0.17    -0.03   0.00   0.00     0.00   0.00   0.00
   4   6     0.00   0.00   0.13    -0.09  -0.14   0.04     0.00  -0.01  -0.28
   5   6     0.00   0.00   0.14     0.23  -0.12  -0.02     0.02  -0.01   0.10
   6   6     0.00   0.00  -0.25     0.21   0.00   0.00     0.02   0.00   0.01
   7   6     0.00   0.00  -0.01    -0.22   0.15   0.00    -0.03   0.01   0.00
   8   1     0.00   0.00   0.18     0.30   0.01  -0.06     0.03   0.00   0.38
   9   6     0.00   0.00  -0.01    -0.20  -0.15   0.00    -0.01  -0.01   0.00
  10   1     0.00   0.00  -0.63     0.02   0.00   0.00     0.00   0.00  -0.01
  11   1     0.00   0.00  -0.54     0.20   0.00   0.00     0.02   0.00   0.02
  12   1     0.00   0.00   0.14     0.31  -0.02   0.06     0.03   0.00  -0.42
  13   1     0.11  -0.07  -0.06    -0.25   0.16   0.02     0.23  -0.15  -0.13
  14   1    -0.01   0.00  -0.08    -0.23   0.15   0.03    -0.03   0.02  -0.18
  15   1    -0.10   0.06  -0.06    -0.17   0.11   0.02    -0.28   0.18  -0.13
  16   1     0.01   0.01  -0.09    -0.18  -0.13  -0.03    -0.02  -0.01   0.17
  17   1     0.11   0.06  -0.07    -0.17  -0.13  -0.02    -0.27  -0.14   0.13
  18   1    -0.13  -0.07  -0.07    -0.25  -0.17  -0.02     0.26   0.13   0.13
                    10                     11                     12
                     A                      A                      A
 Frequencies --   542.2158               708.3141               735.8461
 Red. masses --     4.7347                 2.3319                 5.5110
 Frc consts  --     0.8201                 0.6893                 1.7582
 IR Inten    --     0.0867                16.0786                 0.0668
 Atom AN      X      Y      Z        X      Y      Z        X      Y      Z
   1   6     0.13   0.03   0.00     0.00   0.00  -0.12    -0.15   0.09   0.00
   2   6     0.19   0.03   0.01     0.00   0.00   0.15    -0.03  -0.05   0.00
   3   6    -0.01   0.22   0.00     0.00   0.00  -0.12    -0.01  -0.23   0.00
   4   6    -0.20   0.04  -0.01     0.00   0.00   0.15     0.03  -0.05   0.00
   5   6    -0.12   0.05   0.00     0.00   0.00  -0.13     0.15   0.09   0.00
   6   6     0.01  -0.10   0.00     0.00   0.00   0.17     0.00   0.45   0.00
   7   6     0.26  -0.11   0.00     0.00   0.00   0.02     0.17  -0.11   0.00
   8   1    -0.02   0.23   0.01     0.00   0.00  -0.53     0.04  -0.08   0.02
   9   6    -0.26  -0.13   0.00     0.00   0.00   0.02    -0.17  -0.13   0.00
  10   1     0.02  -0.10   0.01     0.00   0.00   0.03     0.01   0.46   0.01
  11   1    -0.01   0.22   0.00     0.00   0.00  -0.50    -0.01  -0.23   0.01
  12   1     0.03   0.19  -0.01     0.00   0.00  -0.52    -0.03  -0.09   0.01
  13   1     0.28  -0.15   0.00     0.12  -0.06  -0.04     0.19  -0.17   0.00
  14   1     0.20  -0.10  -0.01     0.00   0.00  -0.03     0.12  -0.11   0.00
  15   1     0.27  -0.14  -0.01    -0.11   0.06  -0.04     0.19  -0.17  -0.01
  16   1    -0.31  -0.19   0.01     0.01   0.00  -0.03    -0.20  -0.16   0.00
  17   1    -0.22  -0.14   0.00     0.11   0.07  -0.04    -0.15  -0.13   0.00
  18   1    -0.21  -0.13   0.01    -0.12  -0.08  -0.04    -0.16  -0.14   0.00
                    13                     14                     15
                     A                      A                      A
 Frequencies --   783.8173               897.6104               905.0426
 Red. masses --     1.3227                 1.2907                 1.3155
 Frc consts  --     0.4788                 0.6127                 0.6348
 IR Inten    --    40.6408                 2.9839                 0.0049
 Atom AN      X      Y      Z        X      Y      Z        X      Y      Z
   1   6     0.00   0.00   0.09     0.00   0.00   0.01     0.00   0.00   0.11
   2   6     0.00   0.00  -0.07     0.00   0.00   0.01     0.00   0.00  -0.01
   3   6     0.00   0.00   0.04     0.00   0.00  -0.15     0.00   0.00   0.00
   4   6     0.00   0.00  -0.06     0.00   0.00   0.02     0.00   0.00   0.01
   5   6     0.00   0.00   0.09     0.00   0.00   0.01     0.00   0.00  -0.12
   6   6     0.00   0.00   0.06     0.00   0.00   0.03     0.00   0.00   0.01
   7   6     0.00   0.00  -0.02     0.00   0.00   0.03     0.00   0.00  -0.02
   8   1     0.00   0.00  -0.48     0.00   0.00  -0.08     0.00   0.00   0.68
   9   6     0.00   0.00  -0.02     0.00   0.00   0.02     0.00   0.00   0.02
  10   1     0.00   0.00  -0.64     0.00   0.00  -0.21     0.00   0.00  -0.03
  11   1     0.00   0.00  -0.05     0.00   0.00   0.91     0.00   0.00   0.02
  12   1     0.00   0.00  -0.47     0.00   0.00  -0.05     0.00   0.00  -0.66
  13   1    -0.12   0.07   0.04     0.13  -0.06  -0.05    -0.09   0.05   0.03
  14   1     0.00   0.00   0.07     0.00   0.00  -0.09     0.00   0.00   0.05
  15   1     0.12  -0.07   0.04    -0.13   0.06  -0.05     0.09  -0.05   0.03
  16   1    -0.01   0.00   0.08     0.01   0.00  -0.06     0.01   0.00  -0.07
  17   1    -0.12  -0.07   0.05     0.10   0.07  -0.04     0.09   0.07  -0.04
  18   1     0.12   0.07   0.05    -0.11  -0.07  -0.04    -0.10  -0.07  -0.04
                    16                     17                     18
                     A                      A                      A
 Frequencies --   918.7353               989.0016               999.0448
 Red. masses --     2.9323                 1.3188                 1.4191
 Frc consts  --     1.4583                 0.7600                 0.8345
 IR Inten    --     2.9004                 0.0150                 3.6085
 Atom AN      X      Y      Z        X      Y      Z        X      Y      Z
   1   6    -0.09  -0.17   0.00     0.00   0.00   0.08     0.04   0.02   0.00
   2   6     0.10  -0.01   0.00     0.00   0.00   0.00    -0.02  -0.04   0.00
   3   6     0.19   0.01   0.00     0.00   0.00  -0.03    -0.01   0.08   0.00
   4   6     0.11   0.01   0.00     0.00   0.00   0.01     0.02  -0.03   0.00
   5   6    -0.08   0.16   0.00     0.00   0.00   0.07    -0.04   0.00   0.00
   6   6     0.03   0.00   0.00     0.00   0.00  -0.13     0.00   0.06   0.00
   7   6    -0.12   0.10   0.00     0.00   0.00   0.00    -0.05  -0.10   0.00
   8   1    -0.09   0.16  -0.01     0.00   0.00  -0.42    -0.08  -0.06   0.01
   9   6    -0.10  -0.12   0.00     0.00   0.00  -0.01     0.05  -0.08   0.00
  10   1     0.49   0.00   0.00     0.00   0.00   0.75    -0.02   0.07   0.00
  11   1     0.28   0.01  -0.02     0.00   0.00   0.10    -0.02   0.09  -0.01
  12   1    -0.09  -0.18   0.01     0.00   0.00  -0.47     0.07  -0.02   0.00
  13   1    -0.09  -0.03   0.02    -0.02   0.01   0.01    -0.12   0.29  -0.04
  14   1    -0.37   0.14   0.00     0.00   0.00   0.01     0.51  -0.18   0.00
  15   1    -0.08  -0.04  -0.02     0.02  -0.01   0.01    -0.15   0.30   0.05
  16   1     0.08   0.12   0.00     0.00   0.00   0.02     0.37   0.33   0.00
  17   1    -0.35  -0.07  -0.02    -0.02  -0.02   0.01    -0.32   0.01  -0.04
  18   1    -0.32  -0.05   0.02     0.02   0.02   0.01    -0.28   0.04   0.04
                    19                     20                     21
                     A                      A                      A
 Frequencies --  1012.7334              1034.8860              1061.3733
 Red. masses --     4.2966                 1.7120                 1.5212
 Frc consts  --     2.5964                 1.0803                 1.0096
 IR Inten    --     0.2960                 1.2659                 0.2817
 Atom AN      X      Y      Z        X      Y      Z        X      Y      Z
   1   6    -0.24  -0.17   0.00     0.08   0.02   0.00     0.00   0.00  -0.03
   2   6    -0.01   0.02   0.00    -0.04   0.04   0.00     0.00   0.00   0.08
   3   6    -0.09   0.31   0.00    -0.11  -0.08   0.00     0.00   0.00   0.01
   4   6    -0.03  -0.04   0.00    -0.02  -0.03   0.00     0.00   0.00  -0.12
   5   6     0.27  -0.15   0.00    -0.07   0.06   0.00     0.00   0.00   0.04
   6   6     0.00   0.04   0.00     0.00  -0.01   0.00     0.00   0.00   0.00
   7   6     0.08   0.04   0.00     0.08   0.07   0.00     0.00   0.00  -0.09
   8   1     0.29  -0.13   0.00    -0.02   0.14   0.01     0.00   0.00  -0.16
   9   6     0.05  -0.05   0.00     0.10  -0.07   0.00     0.00   0.00   0.13
  10   1    -0.03   0.02   0.00    -0.01  -0.01   0.00     0.00   0.00   0.00
  11   1    -0.18   0.32  -0.01    -0.26  -0.08   0.00    -0.01   0.00   0.00
  12   1    -0.20  -0.26  -0.01     0.14  -0.07   0.00     0.00   0.00   0.10
  13   1     0.12  -0.20   0.03     0.15  -0.28   0.04    -0.34   0.14   0.10
  14   1    -0.27   0.09   0.00    -0.38   0.14   0.00     0.00  -0.01   0.19
  15   1     0.12  -0.20  -0.03     0.17  -0.29  -0.04     0.33  -0.13   0.11
  16   1     0.26   0.22   0.00     0.42   0.34   0.01     0.04   0.01  -0.26
  17   1    -0.15   0.02  -0.03    -0.29   0.02  -0.05     0.36   0.30  -0.15
  18   1    -0.14   0.03   0.03    -0.24   0.07   0.05    -0.41  -0.31  -0.14
                    22                     23                     24
                     A                      A                      A
 Frequencies --  1061.8883              1120.8105              1178.8222
 Red. masses --     1.5511                 1.5696                 1.6313
 Frc consts  --     1.0305                 1.1617                 1.3356
 IR Inten    --     6.0691                 4.8598                 0.0325
 Atom AN      X      Y      Z        X      Y      Z        X      Y      Z
   1   6     0.00   0.00   0.03    -0.09   0.06   0.00    -0.06   0.01   0.00
   2   6     0.00   0.00  -0.12     0.00   0.02   0.00    -0.11   0.08   0.00
   3   6     0.00   0.00   0.06     0.00  -0.07   0.00     0.00   0.00   0.00
   4   6     0.00   0.00  -0.09     0.02   0.03   0.00    -0.11  -0.08   0.00
   5   6     0.00   0.00   0.02     0.10   0.07   0.00    -0.05   0.00   0.00
   6   6     0.00   0.00   0.00    -0.01  -0.12   0.00     0.07   0.00   0.00
   7   6     0.00   0.00   0.12    -0.01  -0.04   0.00     0.05  -0.04   0.00
   8   1     0.00   0.00  -0.08     0.38   0.53   0.00    -0.01   0.07   0.00
   9   6     0.00   0.00   0.09     0.01  -0.04   0.00     0.06   0.04   0.00
  10   1     0.00   0.00  -0.01    -0.04  -0.13   0.00     0.66  -0.01   0.00
  11   1     0.00   0.00  -0.24    -0.05  -0.07   0.00     0.66   0.00   0.00
  12   1     0.00   0.00  -0.09    -0.37   0.53   0.00    -0.07   0.02   0.00
  13   1     0.46  -0.19  -0.14    -0.02   0.07  -0.02     0.07  -0.04  -0.01
  14   1    -0.01   0.01  -0.26     0.14  -0.06   0.00     0.13  -0.06   0.00
  15   1    -0.44   0.17  -0.15    -0.02   0.07   0.02     0.07  -0.04   0.01
  16   1     0.02   0.01  -0.19     0.10   0.08   0.00     0.09   0.07   0.00
  17   1     0.26   0.21  -0.11    -0.12  -0.01  -0.02     0.09   0.03   0.00
  18   1    -0.29  -0.22  -0.10    -0.11   0.00   0.02     0.09   0.03   0.00
                    25                     26                     27
                     A                      A                      A
 Frequencies --  1196.3316              1269.1824              1322.3566
 Red. masses --     1.1332                 3.6844                 2.7348
 Frc consts  --     0.9556                 3.4967                 2.8176
 IR Inten    --     1.2099                 0.4781                 0.5957
 Atom AN      X      Y      Z        X      Y      Z        X      Y      Z
   1   6    -0.01   0.04   0.00    -0.01   0.00   0.00    -0.04   0.09   0.00
   2   6     0.03  -0.03   0.00    -0.23   0.21   0.00    -0.13  -0.17   0.00
   3   6    -0.04   0.00   0.00    -0.04   0.01   0.00     0.10   0.00   0.00
   4   6     0.02   0.02   0.00     0.28   0.11   0.00    -0.05   0.23   0.00
   5   6     0.00  -0.04   0.00     0.04   0.06   0.00    -0.01  -0.07   0.00
   6   6     0.05   0.00   0.00    -0.03  -0.16   0.00     0.13  -0.03   0.00
   7   6    -0.01   0.01   0.00     0.08  -0.07   0.00     0.04   0.04   0.00
   8   1    -0.24  -0.44   0.00    -0.23  -0.43   0.00    -0.15  -0.31   0.00
   9   6    -0.01  -0.01   0.00    -0.09  -0.04   0.00     0.01  -0.06   0.00
  10   1     0.55   0.00   0.00     0.13  -0.17   0.00    -0.47  -0.03   0.00
  11   1    -0.40   0.00   0.00    -0.04   0.03   0.00     0.53   0.01   0.00
  12   1    -0.25   0.46   0.00     0.19  -0.38   0.00    -0.08   0.16   0.00
  13   1    -0.01   0.00   0.00     0.15  -0.07  -0.04     0.01  -0.17   0.07
  14   1    -0.06   0.02   0.00     0.30  -0.11   0.00    -0.12   0.06   0.00
  15   1    -0.01   0.01   0.00     0.14  -0.08   0.04     0.02  -0.17  -0.07
  16   1    -0.01  -0.01   0.00    -0.20  -0.17   0.00     0.10   0.06   0.01
  17   1    -0.03   0.00   0.00    -0.17  -0.07   0.02    -0.20   0.05  -0.07
  18   1    -0.03   0.00   0.00    -0.16  -0.08  -0.03    -0.19   0.07   0.06
                    28                     29                     30
                     A                      A                      A
 Frequencies --  1345.5081              1413.1433              1415.6450
 Red. masses --     1.7743                 1.2392                 1.2611
 Frc consts  --     1.8926                 1.4580                 1.4890
 IR Inten    --     0.0290                 1.5921                 0.9647
 Atom AN      X      Y      Z        X      Y      Z        X      Y      Z
   1   6     0.09  -0.12   0.00     0.00   0.00   0.00     0.00   0.00   0.00
   2   6     0.04   0.00   0.00    -0.01   0.00   0.00    -0.02   0.02   0.00
   3   6    -0.14   0.00   0.00     0.00   0.01   0.00     0.00   0.00   0.00
   4   6     0.01  -0.03   0.00    -0.01  -0.02   0.00     0.02   0.01   0.00
   5   6     0.08   0.12   0.00    -0.01   0.00   0.00     0.00   0.01   0.00
   6   6    -0.07   0.01   0.00     0.00   0.01   0.00     0.00  -0.01   0.00
   7   6    -0.01   0.02   0.00     0.06  -0.03   0.00     0.12  -0.06   0.00
   8   1    -0.23  -0.41   0.00     0.03   0.05   0.00    -0.02  -0.03   0.00
   9   6     0.01   0.00   0.00     0.10   0.07   0.00    -0.06  -0.04   0.00
  10   1    -0.27   0.01   0.00     0.01   0.01   0.00     0.01  -0.01   0.00
  11   1     0.61  -0.01   0.00     0.02   0.01   0.00     0.02  -0.01   0.00
  12   1    -0.24   0.45   0.00    -0.01   0.02   0.00     0.02  -0.03   0.00
  13   1    -0.01  -0.01   0.01    -0.21   0.13   0.13    -0.39   0.27   0.23
  14   1    -0.01   0.01   0.00    -0.24   0.03   0.00    -0.46   0.04  -0.01
  15   1    -0.01  -0.01  -0.01    -0.20   0.13  -0.13    -0.39   0.28  -0.23
  16   1     0.00  -0.01   0.00    -0.27  -0.38   0.02     0.13   0.19  -0.01
  17   1    -0.01   0.00   0.00    -0.42  -0.21   0.24     0.21   0.10  -0.12
  18   1    -0.01   0.00   0.00    -0.41  -0.23  -0.24     0.21   0.11   0.12
                    31                     32                     33
                     A                      A                      A
 Frequencies --  1448.9667              1487.0040              1487.7181
 Red. masses --     2.1092                 1.0441                 1.0430
 Frc consts  --     2.6090                 1.3603                 1.3601
 IR Inten    --     0.1214                13.5913                 0.6070
 Atom AN      X      Y      Z        X      Y      Z        X      Y      Z
   1   6     0.07  -0.01   0.00     0.00   0.00   0.00     0.00   0.00   0.00
   2   6    -0.14  -0.12   0.00     0.00   0.00  -0.01     0.00   0.00   0.02
   3   6     0.00   0.11   0.00     0.00   0.00   0.00     0.00   0.00   0.00
   4   6     0.15  -0.10   0.00     0.00   0.00  -0.02     0.00   0.00  -0.01
   5   6    -0.07  -0.02   0.00     0.00   0.00   0.00     0.00   0.00   0.00
   6   6     0.00   0.05   0.00     0.00   0.00   0.00     0.00   0.00   0.00
   7   6     0.04   0.06   0.00     0.00   0.00  -0.03     0.00   0.00   0.05
   8   1     0.15   0.36   0.00     0.00   0.00   0.01     0.00   0.00   0.00
   9   6    -0.07   0.03   0.00     0.00   0.00  -0.05     0.00   0.00  -0.03
  10   1     0.01   0.06   0.00     0.01   0.00   0.00     0.00   0.00   0.00
  11   1     0.01   0.12   0.00     0.00   0.00   0.00     0.00   0.00  -0.01
  12   1    -0.14   0.36   0.00     0.01   0.00   0.00     0.00   0.00   0.01
  13   1    -0.14  -0.30   0.19     0.03  -0.27   0.03    -0.07   0.40  -0.03
  14   1     0.16   0.02   0.02     0.00  -0.01   0.38     0.02   0.01  -0.60
  15   1    -0.13  -0.28  -0.21    -0.06   0.25   0.02     0.07  -0.41  -0.05
  16   1     0.05   0.15  -0.03    -0.01   0.04   0.60     0.00   0.03   0.38
  17   1     0.17  -0.23   0.19     0.39  -0.14   0.06     0.25  -0.10   0.05
  18   1     0.19  -0.26  -0.16    -0.39   0.14   0.03    -0.24   0.07   0.01
                    34                     35                     36
                     A                      A                      A
 Frequencies --  1490.5535              1507.1538              1524.1041
 Red. masses --     1.1416                 1.2727                 2.0701
 Frc consts  --     1.4943                 1.7033                 2.8332
 IR Inten    --     1.0379                20.1024                16.9674
 Atom AN      X      Y      Z        X      Y      Z        X      Y      Z
   1   6     0.02   0.02   0.00     0.04  -0.03   0.00    -0.05  -0.10   0.00
   2   6     0.02  -0.02   0.00    -0.07  -0.03   0.00    -0.04   0.13   0.00
   3   6    -0.02   0.00   0.00    -0.01   0.04   0.00     0.09   0.00   0.00
   4   6     0.01   0.01   0.00     0.07  -0.04   0.00    -0.05  -0.11   0.00
   5   6     0.02  -0.02   0.00    -0.05  -0.03   0.00    -0.05   0.08   0.00
   6   6    -0.07   0.00   0.00     0.02   0.04   0.00     0.19   0.01   0.00
   7   6     0.00   0.04   0.00     0.01  -0.03   0.00     0.02   0.00   0.00
   8   1     0.08   0.07   0.00     0.09   0.20   0.00    -0.20  -0.14   0.00
   9   6     0.03  -0.03   0.00     0.01  -0.02   0.00     0.02   0.01   0.00
  10   1     0.21   0.00   0.00    -0.03   0.05   0.00    -0.53   0.01   0.00
  11   1     0.07   0.00   0.00     0.03   0.05   0.00    -0.42   0.00   0.00
  12   1     0.07  -0.05   0.00    -0.09   0.19   0.00    -0.23   0.19   0.00
  13   1    -0.25  -0.24   0.23     0.25   0.23  -0.22    -0.15  -0.14   0.14
  14   1     0.29  -0.02  -0.01    -0.33   0.04  -0.01     0.26  -0.05   0.01
  15   1    -0.23  -0.26  -0.25     0.25   0.20   0.23    -0.15  -0.13  -0.15
  16   1    -0.18  -0.27   0.00    -0.21  -0.28   0.03    -0.09  -0.13   0.01
  17   1    -0.12   0.33  -0.27    -0.05   0.31  -0.25     0.02   0.16  -0.12
  18   1    -0.11   0.35   0.23    -0.10   0.34   0.21     0.00   0.18   0.10
                    37                     38                     39
                     A                      A                      A
 Frequencies --  1627.7076              1646.7105              3022.2865
 Red. masses --     5.2919                 5.7117                 1.0371
 Frc consts  --     8.2606                 9.1253                 5.5813
 IR Inten    --     5.0921                24.0893                47.2651
 Atom AN      X      Y      Z        X      Y      Z        X      Y      Z
   1   6    -0.12   0.29   0.00     0.19  -0.10   0.00     0.00   0.00   0.00
   2   6    -0.01  -0.26   0.00    -0.26  -0.03   0.00     0.00   0.00   0.00
   3   6     0.00   0.11   0.00     0.36   0.01   0.00     0.00   0.00   0.00
   4   6     0.01  -0.29   0.00    -0.23   0.00   0.00     0.00   0.00   0.00
   5   6     0.10   0.30   0.00     0.18   0.11   0.00     0.00   0.00   0.00
   6   6     0.03  -0.16   0.00    -0.30   0.00   0.00     0.00   0.00   0.00
   7   6    -0.01   0.02   0.00     0.03   0.00   0.00    -0.03   0.01   0.00
   8   1    -0.30  -0.36   0.00    -0.02  -0.25   0.00    -0.01   0.00   0.00
   9   6     0.01   0.03   0.00     0.03   0.00   0.00    -0.03  -0.03   0.00
  10   1    -0.05  -0.18   0.00     0.32   0.00   0.00     0.00   0.00   0.00
  11   1    -0.02   0.11   0.00    -0.52   0.02   0.00     0.00  -0.01   0.00
  12   1     0.26  -0.37   0.00    -0.02   0.28   0.00     0.00   0.00   0.00
  13   1     0.07   0.02  -0.05     0.11   0.01  -0.06     0.17   0.07   0.27
  14   1    -0.16   0.05  -0.01    -0.11   0.02   0.00    -0.04  -0.22  -0.01
  15   1     0.08   0.01   0.05     0.11   0.00   0.06     0.17   0.08  -0.25
  16   1    -0.13  -0.15   0.01     0.07   0.06  -0.01     0.29  -0.24   0.02
  17   1     0.06   0.14  -0.09     0.00  -0.01   0.01     0.02   0.32   0.41
  18   1     0.05   0.14   0.08     0.01  -0.01  -0.01     0.04   0.31  -0.48
                    40                     41                     42
                     A                      A                      A
 Frequencies --  3022.7974              3070.4911              3070.7410
 Red. masses --     1.0371                 1.1002                 1.1003
 Frc consts  --     5.5832                 6.1113                 6.1128
 IR Inten    --    17.3483                11.0805                23.8846
 Atom AN      X      Y      Z        X      Y      Z        X      Y      Z
   1   6     0.00   0.00   0.00     0.00   0.00   0.00     0.00   0.00   0.00
   2   6     0.00   0.00   0.00     0.00   0.00   0.00     0.00   0.00   0.00
   3   6     0.00   0.00   0.00     0.00   0.00   0.00     0.00   0.00   0.00
   4   6     0.00   0.00   0.00     0.00   0.00   0.00     0.00   0.00   0.00
   5   6     0.00   0.00   0.00     0.00   0.00   0.00     0.00   0.00   0.00
   6   6     0.00   0.00   0.00     0.00   0.00   0.00     0.00   0.00   0.00
   7   6    -0.04   0.01   0.00     0.00   0.00  -0.02     0.00   0.00   0.09
   8   1     0.01   0.00   0.00     0.00   0.00   0.00     0.00   0.00   0.00
   9   6     0.02   0.02   0.00     0.00   0.00   0.09     0.00   0.00   0.02
  10   1     0.00   0.00   0.00     0.00   0.00   0.00     0.00   0.00   0.00
  11   1     0.00   0.02   0.00     0.00   0.00   0.00     0.00   0.00   0.00
  12   1    -0.01   0.00   0.00     0.00   0.00   0.00     0.00   0.00   0.00
  13   1     0.29   0.12   0.47     0.07   0.03   0.11    -0.37  -0.15  -0.56
  14   1    -0.07  -0.37  -0.01     0.00   0.01   0.00    -0.01  -0.03   0.02
  15   1     0.29   0.14  -0.43    -0.08  -0.04   0.11     0.39   0.18  -0.54
  16   1    -0.17   0.14  -0.01    -0.05   0.04   0.02    -0.01   0.01   0.00
  17   1    -0.01  -0.19  -0.24    -0.03  -0.45  -0.54    -0.01  -0.09  -0.11
  18   1    -0.03  -0.18   0.28     0.06   0.38  -0.56     0.01   0.07  -0.11
                    43                     44                     45
                     A                      A                      A
 Frequencies --  3100.0378              3100.6153              3143.8904
 Red. masses --     1.1004                 1.1002                 1.0896
 Frc consts  --     6.2304                 6.2320                 6.3451
 IR Inten    --    14.9591                20.5694                20.7966
 Atom AN      X      Y      Z        X      Y      Z        X      Y      Z
   1   6     0.00   0.00   0.00     0.00   0.00   0.00     0.00   0.00   0.00
   2   6     0.00   0.00   0.00     0.00   0.00   0.00     0.00   0.00   0.00
   3   6     0.00   0.01   0.00     0.00   0.00   0.00     0.00  -0.09   0.00
   4   6     0.00   0.00   0.00     0.00   0.00   0.00     0.00   0.00   0.00
   5   6     0.00   0.00   0.00     0.00   0.00   0.00     0.00   0.00   0.00
   6   6     0.00   0.00   0.00     0.00   0.00   0.00     0.00   0.00   0.00
   7   6    -0.04  -0.08   0.00     0.00   0.01   0.00     0.00   0.00   0.00
   8   1     0.00   0.00   0.00    -0.03   0.02   0.00    -0.04   0.02   0.00
   9   6    -0.01   0.01   0.00    -0.05   0.07   0.00     0.00   0.00   0.00
  10   1     0.00   0.00   0.00     0.00  -0.01   0.00     0.00   0.00   0.00
  11   1     0.00  -0.05   0.00     0.00   0.03   0.00     0.00   0.99   0.00
  12   1    -0.01   0.00   0.00     0.00   0.00   0.00     0.05   0.03   0.00
  13   1     0.14   0.04   0.24    -0.02  -0.01  -0.03     0.00   0.00   0.01
  14   1     0.14   0.88   0.02    -0.02  -0.11   0.00     0.01   0.06   0.00
  15   1     0.17   0.06  -0.26    -0.02  -0.01   0.03     0.00   0.00  -0.01
  16   1     0.09  -0.07   0.01     0.70  -0.56   0.04    -0.01   0.01   0.00
  17   1     0.00  -0.02  -0.03    -0.02  -0.19  -0.26     0.00   0.01   0.01
  18   1     0.00  -0.02   0.03    -0.03  -0.13   0.23     0.00   0.01  -0.01
                    46                     47                     48
                     A                      A                      A
 Frequencies --  3152.2733              3161.0973              3178.9967
 Red. masses --     1.0859                 1.0904                 1.0963
 Frc consts  --     6.3576                 6.4196                 6.5277
 IR Inten    --     0.9921                23.8960                20.9723
 Atom AN      X      Y      Z        X      Y      Z        X      Y      Z
   1   6     0.05   0.03   0.00    -0.05  -0.03   0.00    -0.03  -0.01   0.00
   2   6     0.00   0.00   0.00     0.00   0.00   0.00     0.00   0.00   0.00
   3   6     0.00  -0.01   0.00     0.00   0.00   0.00     0.00   0.00   0.00
   4   6     0.00   0.00   0.00     0.00   0.00   0.00     0.00   0.00   0.00
   5   6    -0.03   0.02   0.00    -0.06   0.04   0.00     0.04  -0.02   0.00
   6   6     0.00  -0.05   0.00     0.00  -0.01   0.00     0.00  -0.07   0.00
   7   6     0.00   0.00   0.00     0.00   0.00   0.00     0.00   0.00   0.00
   8   1     0.37  -0.22   0.00     0.67  -0.40   0.00    -0.39   0.23   0.00
   9   6     0.00   0.00   0.00     0.00   0.00   0.00     0.00   0.00   0.00
  10   1     0.00   0.56   0.00     0.00   0.16   0.00     0.00   0.81   0.00
  11   1     0.00   0.06   0.00     0.00   0.00   0.00     0.00  -0.04   0.00
  12   1    -0.60  -0.35   0.00     0.52   0.30   0.00     0.32   0.18   0.00
  13   1     0.00   0.00  -0.01     0.00   0.00   0.00     0.00   0.00   0.00
  14   1     0.00   0.00   0.00     0.00   0.00   0.00     0.00   0.00   0.00
  15   1    -0.01   0.00   0.01     0.00   0.00   0.00     0.00   0.00   0.00
  16   1     0.02  -0.01   0.00     0.03  -0.02   0.00    -0.01   0.01   0.00
  17   1     0.00   0.00   0.00     0.00   0.00   0.00     0.00   0.00   0.00
  18   1     0.00   0.00   0.00     0.00   0.00   0.00     0.00   0.00   0.00

 -------------------
 - Thermochemistry -
 -------------------
 Temperature   298.150 Kelvin.  Pressure   1.00000 Atm.
 Atom  1 has atomic number  6 and mass  12.00000
 Atom  2 has atomic number  6 and mass  12.00000
 Atom  3 has atomic number  6 and mass  12.00000
 Atom  4 has atomic number  6 and mass  12.00000
 Atom  5 has atomic number  6 and mass  12.00000
 Atom  6 has atomic number  6 and mass  12.00000
 Atom  7 has atomic number  6 and mass  12.00000
 Atom  8 has atomic number  1 and mass   1.00783
 Atom  9 has atomic number  6 and mass  12.00000
 Atom 10 has atomic number  1 and mass   1.00783
 Atom 11 has atomic number  1 and mass   1.00783
 Atom 12 has atomic number  1 and mass   1.00783
 Atom 13 has atomic number  1 and mass   1.00783
 Atom 14 has atomic number  1 and mass   1.00783
 Atom 15 has atomic number  1 and mass   1.00783
 Atom 16 has atomic number  1 and mass   1.00783
 Atom 17 has atomic number  1 and mass   1.00783
 Atom 18 has atomic number  1 and mass   1.00783
 Molecular mass:   106.07825 amu.
 Principal axes and moments of inertia in atomic units:
                           1         2         3
     EIGENVALUES --   504.700131026.203421508.55707
           X            1.00000   0.00036  -0.00002
           Y           -0.00036   1.00000  -0.00005
           Z            0.00002   0.00005   1.00000
 This molecule is an asymmetric top.
 Rotational symmetry number  1.
 Warning -- assumption of classical behavior for rotation
           may cause significant error
 Rotational temperatures (Kelvin)      0.17161     0.08440     0.05742
 Rotational constants (GHZ):           3.57587     1.75866     1.19634
    1 imaginary frequencies ignored.
 Zero-point vibrational energy     405304.2 (Joules/Mol)
                                   96.87002 (Kcal/Mol)
 Warning -- explicit consideration of   9 degrees of freedom as
           vibrations may cause significant error
 Vibrational temperatures:     19.43   283.50   317.49   395.10   582.48
          (Kelvin)            636.48   752.29   762.84   780.13  1019.10
                             1058.72  1127.74  1291.46  1302.15  1321.85
                             1422.95  1437.40  1457.10  1488.97  1527.08
                             1527.82  1612.59  1696.06  1721.25  1826.07
                             1902.57  1935.88  2033.20  2036.79  2084.74
                             2139.46  2140.49  2144.57  2168.46  2192.84
                             2341.91  2369.25  4348.39  4349.13  4417.75
                             4418.11  4460.26  4461.09  4523.35  4535.41
                             4548.11  4573.86
 
 Zero-point correction=                           0.154372 (Hartree/Particle)
 Thermal correction to Energy=                    0.161637
 Thermal correction to Enthalpy=                  0.162581
 Thermal correction to Gibbs Free Energy=         0.121389
 Sum of electronic and zero-point Energies=           -310.811865
 Sum of electronic and thermal Energies=              -310.804600
 Sum of electronic and thermal Enthalpies=            -310.803656
 Sum of electronic and thermal Free Energies=         -310.844848
 
                     E (Thermal)             CV                S
                      KCal/Mol        Cal/Mol-Kelvin    Cal/Mol-Kelvin
 Total                  101.429             27.402             86.695
 Electronic               0.000              0.000              0.000
 Translational            0.889              2.981             39.894
 Rotational               0.889              2.981             28.148
 Vibrational             99.651             21.440             18.652
 Vibration  1             0.593              1.987              7.414
 Vibration  2             0.636              1.844              2.161
 Vibration  3             0.647              1.810              1.954
 Vibration  4             0.677              1.720              1.567
 Vibration  5             0.770              1.460              0.945
 Vibration  6             0.802              1.378              0.819
 Vibration  7             0.878              1.199              0.603
 Vibration  8             0.885              1.183              0.587
 Vibration  9             0.897              1.157              0.561
                       Q            Log10(Q)             Ln(Q)
 Total Bot       0.146163D-55        -55.835163       -128.565214
 Total V=0       0.148243D+16         15.170975         34.932460
 Vib (Bot)       0.107568D-68        -68.968318       -158.805422
 Vib (Bot)  1    0.153422D+02          1.185888          2.730608
 Vib (Bot)  2    0.101308D+01          0.005645          0.012998
 Vib (Bot)  3    0.896145D+00         -0.047622         -0.109653
 Vib (Bot)  4    0.702098D+00         -0.153602         -0.353682
 Vib (Bot)  5    0.438695D+00         -0.357838         -0.823952
 Vib (Bot)  6    0.390040D+00         -0.408891         -0.941506
 Vib (Bot)  7    0.307896D+00         -0.511596         -1.177994
 Vib (Bot)  8    0.301580D+00         -0.520598         -1.198721
 Vib (Bot)  9    0.291586D+00         -0.535233         -1.232419
 Vib (V=0)       0.109099D+03          2.037819          4.692252
 Vib (V=0)  1    0.158504D+02          1.200039          2.763192
 Vib (V=0)  2    0.162975D+01          0.212121          0.488427
 Vib (V=0)  3    0.152619D+01          0.183610          0.422778
 Vib (V=0)  4    0.136194D+01          0.134158          0.308911
 Vib (V=0)  5    0.116517D+01          0.066390          0.152868
 Vib (V=0)  6    0.113414D+01          0.054666          0.125873
 Vib (V=0)  7    0.108720D+01          0.036308          0.083602
 Vib (V=0)  8    0.108391D+01          0.034993          0.080574
 Vib (V=0)  9    0.107881D+01          0.032946          0.075860
 Electronic      0.100000D+01          0.000000          0.000000
 Translational   0.429432D+08          7.632895         17.575390
 Rotational      0.316418D+06          5.500261         12.664818
 ***** Axes restored to original set *****
 -------------------------------------------------------------------
 Center     Atomic                   Forces (Hartrees/Bohr)
 Number     Number              X              Y              Z
 -------------------------------------------------------------------
    1          6          -0.000085789    0.000019870    0.000002234
    2          6           0.000082726   -0.000026223    0.000000764
    3          6          -0.000003979    0.000015783   -0.000003029
    4          6           0.000001316   -0.000000036    0.000007409
    5          6          -0.000004735   -0.000005107   -0.000007462
    6          6           0.000007726   -0.000001775   -0.000005715
    7          6          -0.000000188   -0.000004134   -0.000000663
    8          1          -0.000000460    0.000000963    0.000000273
    9          6          -0.000007377    0.000001183   -0.000003026
   10          1          -0.000000768   -0.000000171   -0.000000729
   11          1          -0.000000360    0.000000915    0.000002447
   12          1           0.000001701   -0.000001110   -0.000000199
   13          1           0.000000829    0.000003629   -0.000001395
   14          1          -0.000000452    0.000000349    0.000006780
   15          1           0.000004262   -0.000001638   -0.000000582
   16          1           0.000001641    0.000003442    0.000002083
   17          1          -0.000000023   -0.000003373    0.000003258
   18          1           0.000003931   -0.000002567   -0.000002449
 -------------------------------------------------------------------
 Cartesian Forces:  Max     0.000085789 RMS     0.000017251
 ------------------------------------------------------------------------
           Internal Coordinate Forces (Hartree/Bohr or radian)
 Cent Atom N1     Length/X     N2     Alpha/Y      N3      Beta/Z       J
 ------------------------------------------------------------------------
   1  C 
   2  C     1  -0.000002(   1)
   3  C     2  -0.000006(   2)  1  -0.000002(  18)
   4  C     3   0.000004(   3)  2   0.000018(  19)  1  -0.000003(  34)  0
   5  C     4   0.000014(   4)  3   0.000028(  20)  2  -0.000019(  35)  0
   6  C     5  -0.000003(   5)  4   0.000022(  21)  3  -0.000004(  36)  0
   7  C     2  -0.000002(   6)  3  -0.000009(  22)  4  -0.000002(  37)  0
   8  H     5  -0.000001(   7)  4   0.000000(  23)  3  -0.000002(  38)  0
   9  C     4  -0.000002(   8)  3  -0.000003(  24)  2   0.000016(  39)  0
  10  H     6   0.000001(   9)  5   0.000002(  25)  4   0.000000(  40)  0
  11  H     3   0.000002(  10)  2  -0.000001(  26)  1  -0.000002(  41)  0
  12  H     1  -0.000001(  11)  2   0.000002(  27)  3  -0.000002(  42)  0
  13  H     7  -0.000003(  12)  2  -0.000001(  28)  3  -0.000005(  43)  0
  14  H     7   0.000007(  13)  2   0.000003(  29)  3   0.000000(  44)  0
  15  H     7  -0.000004(  14)  2  -0.000006(  30)  3  -0.000001(  45)  0
  16  H     9   0.000000(  15)  4   0.000005(  31)  3   0.000024(  46)  0
  17  H     9  -0.000001(  16)  4   0.000004(  32) 16   0.000008(  47)  0
  18  H     9   0.000001(  17)  4   0.000004(  33) 16   0.000009(  48)  0
 ------------------------------------------------------------------------
 Internal  Forces:  Max     0.000027667 RMS     0.000008584

 GradGradGradGradGradGradGradGradGradGradGradGradGradGradGradGradGradGrad
 Berny optimization.
 Search for a local minimum.
 Step number   1 out of a maximum of   2
 All quantities printed in internal units (Hartrees-Bohrs-Radians)
 Second derivative matrix not updated -- analytic derivatives used.
     Eigenvalues ---   -0.00044   0.00003   0.02711   0.03521   0.05468
     Eigenvalues ---    0.05977   0.07117   0.08027   0.09593   0.11749
     Eigenvalues ---    0.12047   0.12106   0.13914   0.16691   0.17621
     Eigenvalues ---    0.19595   0.20730   0.22103   0.22667   0.23352
     Eigenvalues ---    0.23387   0.25906   0.27416   0.29378   0.30541
     Eigenvalues ---    0.30862   0.31388   0.32843   0.33966   0.34200
     Eigenvalues ---    0.34250   0.34656   0.34689   0.34862   0.35111
     Eigenvalues ---    0.35138   0.35428   0.35748   0.36053   0.42489
     Eigenvalues ---    0.45913   0.46337   0.49723   0.53131   0.63168
     Eigenvalues ---    1.59432   2.74878  24.86021
 Eigenvalue   1 out of range, new value =    0.000438 Eigenvector:
                           1
           cc2         -0.00142
           cc3          0.00135
           ccc3         0.00009
           cc4         -0.00147
           ccc4         0.00014
           dih4         0.00106
           cc5          0.00150
           ccc5        -0.00007
           dih5         0.01324
           cc6         -0.00133
           ccc6        -0.00023
           dih6        -0.01773
           cc7          0.00009
           ccc7        -0.00054
           dih7         0.00863
           hc8          0.00024
           hcc8         0.00031
           dih8        -0.02483
           cc9         -0.00013
           ccc9         0.00197
           dih9         0.07709
           hc10         0.00003
           hcc10        0.00003
           dih10       -0.00433
           hc11        -0.00023
           hcc11       -0.00007
           dih11       -0.00881
           hc12        -0.00002
           hcc12        0.00043
           dih12        0.00655
           hc13        -0.00014
           hcc13       -0.00034
           dih13       -0.02402
           hc14         0.00000
           hcc14       -0.00005
           dih14       -0.02417
           hc15         0.00012
           hcc15        0.00048
           dih15       -0.02418
           hc16         0.00009
           hcc16        0.00240
           dih16        0.99429
           hc17        -0.00769
           hcc17        0.01072
           dih17        0.03219
           hc18         0.00724
           hcc18       -0.01433
           dih18        0.02983
 Angle between quadratic step and forces=  73.14 degrees.
 Linear search not attempted -- first point.
 Variable       Old X    -DE/DX   Delta X   Delta X   Delta X     New X
                                 (Linear)    (Quad)   (Total)
   cc2        2.64839   0.00000   0.00000  -0.00005  -0.00005   2.64835
   cc3        2.63707  -0.00001   0.00000   0.00004   0.00004   2.63711
   ccc3       2.06539   0.00000   0.00000   0.00000   0.00000   2.06539
   cc4        2.64864   0.00000   0.00000  -0.00005  -0.00005   2.64859
   ccc4       2.13055   0.00002   0.00000   0.00001   0.00001   2.13057
   dih4      -0.00039   0.00000   0.00000   0.00074   0.00074   0.00035
   cc5        2.63694   0.00001   0.00000   0.00007   0.00007   2.63701
   ccc5       2.06545   0.00003   0.00000  -0.00001  -0.00001   2.06544
   dih5       0.00089  -0.00002   0.00000   0.00047   0.00047   0.00136
   cc6        2.63771   0.00000   0.00000  -0.00006  -0.00006   2.63765
   ccc6       2.10232   0.00002   0.00000  -0.00001  -0.00001   2.10231
   dih6      -0.00085   0.00000   0.00000  -0.00115  -0.00115  -0.00200
   cc7        2.85422   0.00000   0.00000   0.00000   0.00000   2.85422
   ccc7       2.11397  -0.00001   0.00000   0.00000   0.00000   2.11397
   dih7       3.13990   0.00000   0.00000   0.00376   0.00376   3.14366
   hc8        2.05065   0.00000   0.00000   0.00001   0.00001   2.05066
   hcc8       2.08942   0.00000   0.00000   0.00002   0.00002   2.08944
   dih8       3.13997   0.00000   0.00000  -0.00094  -0.00094   3.13903
   cc9        2.85432   0.00000   0.00000  -0.00002  -0.00002   2.85429
   ccc9       2.10083   0.00000   0.00000   0.00010   0.00010   2.10093
   dih9       3.14539   0.00002   0.00000   0.00468   0.00468   3.15007
   hc10       2.04983   0.00000   0.00000   0.00000   0.00000   2.04983
  hcc10       2.09046   0.00000   0.00000   0.00001   0.00001   2.09047
  dih10       3.14088   0.00000   0.00000   0.00048   0.00048   3.14136
   hc11       2.05382   0.00000   0.00000  -0.00001  -0.00001   2.05381
  hcc11       2.07638   0.00000   0.00000  -0.00001  -0.00001   2.07637
  dih11       3.14051   0.00000   0.00000   0.00046   0.00046   3.14097
   hc12       2.05147   0.00000   0.00000   0.00000   0.00000   2.05147
  hcc12       2.08860   0.00000   0.00000   0.00003   0.00003   2.08863
  dih12       3.14259   0.00000   0.00000  -0.00061  -0.00061   3.14198
   hc13       2.06856   0.00000   0.00000  -0.00033  -0.00033   2.06823
  hcc13       1.94075   0.00000   0.00000   0.00049   0.00049   1.94125
  dih13       4.21205   0.00000   0.00000  -0.04665  -0.04665   4.16540
   hc14       2.06334   0.00001   0.00000   0.00000   0.00000   2.06334
  hcc14       1.94420   0.00000   0.00000   0.00000   0.00000   1.94420
  dih14       0.02776   0.00000   0.00000  -0.04547  -0.04547  -0.01771
   hc15       2.06815   0.00000   0.00000   0.00032   0.00032   2.06847
  hcc15       1.94149  -0.00001   0.00000  -0.00049  -0.00049   1.94100
  dih15       2.12825   0.00000   0.00000  -0.04665  -0.04665   2.08160
   hc16       2.06334   0.00000   0.00000   0.00001   0.00001   2.06335
  hcc16       1.94303   0.00001   0.00000   0.00015   0.00015   1.94318
  dih16       3.19423   0.00002   0.00000   0.05528   0.05528   3.24951
   hc17       2.06797   0.00000   0.00000  -0.00044  -0.00044   2.06753
  hcc17       1.94219   0.00000   0.00000   0.00068   0.00068   1.94287
  dih17       2.10075   0.00001   0.00000   0.00195   0.00195   2.10270
   hc18       2.06874   0.00000   0.00000   0.00042   0.00042   2.06916
  hcc18       1.94099   0.00000   0.00000  -0.00085  -0.00085   1.94014
  dih18       4.18556   0.00001   0.00000   0.00182   0.00182   4.18737
         Item               Value     Threshold  Converged?
 Maximum Force            0.000028     0.000450     YES
 RMS     Force            0.000009     0.000300     YES
 Maximum Displacement     0.055282     0.001800     NO 
 RMS     Displacement     0.014087     0.001200     NO 
 Predicted change in Energy=-2.359661D-06
 GradGradGradGradGradGradGradGradGradGradGradGradGradGradGradGradGradGrad


 Test job not archived.
 1\1\GINC-PARIS19\Freq\RB3LYP\6-311+G(d,p)\C8H10\CHAQUIN\17-Apr-2012\1\
 \# B3LYP 6-311+G** GEOM=CHECKPOINT FREQ POP=NONE TEST\\*** Vibrations 
 1,2-xylene **** 0 1\\0,1\C\C,1,cc2\C,2,cc3,1,ccc3\C,3,cc4,2,ccc4,1,dih
 4,0\C,4,cc5,3,ccc5,2,dih5,0\C,5,cc6,4,ccc6,3,dih6,0\C,2,cc7,3,ccc7,4,d
 ih7,0\H,5,hc8,4,hcc8,3,dih8,0\C,4,cc9,3,ccc9,2,dih9,0\H,6,hc10,5,hcc10
 ,4,dih10,0\H,3,hc11,2,hcc11,1,dih11,0\H,1,hc12,2,hcc12,3,dih12,0\H,7,h
 c13,2,hcc13,3,dih13,0\H,7,hc14,2,hcc14,3,dih14,0\H,7,hc15,2,hcc15,3,di
 h15,0\H,9,hc16,4,hcc16,3,dih16,0\H,9,hc17,4,hcc17,16,dih17,0\H,9,hc18,
 4,hcc18,16,dih18,0\\cc2=1.40146936\cc3=1.39547857\ccc3=118.33814429\cc
 4=1.40160187\ccc4=122.07166099\dih4=-0.0224244\cc5=1.39540872\ccc5=118
 .34143376\dih5=0.05095139\cc6=1.39581482\ccc6=120.45424059\dih6=-0.048
 84058\cc7=1.51038885\ccc7=121.1213825\dih7=179.90280329\hc8=1.0851573\
 hcc8=119.71512972\dih8=179.90707451\cc9=1.5104386\ccc9=120.36872173\di
 h9=180.21739568\hc10=1.08472279\hcc10=119.77428634\dih10=179.95918046\
 hc11=1.08683378\hcc11=118.96767118\dih11=179.93811209\hc12=1.08558971\
 hcc12=119.66811657\dih12=180.05737751\hc13=1.09463383\hcc13=111.197061
 34\dih13=241.33277618\hc14=1.09187241\hcc14=111.39431487\dih14=1.59060
 083\hc15=1.09441747\hcc15=111.23928325\dih15=121.93966059\hc16=1.09187
 177\hcc16=111.32741494\dih16=183.01561699\hc17=1.09432256\hcc17=111.27
 949361\dih17=120.36401957\hc18=1.09473177\hcc18=111.21053072\dih18=239
 .81465517\\Version=AM64L-G03RevC.02\State=1-A\HF=-310.9662372\RMSD=2.1
 10e-09\RMSF=1.725e-05\Dipole=-0.0181082,-0.003649,0.1492037\DipoleDeri
 v=-0.0788592,0.0001056,0.0814584,0.0001654,-0.1484037,0.0007327,0.1796
 571,0.0007881,-0.0924617,0.3039367,0.001135,-0.1614096,0.0060007,-0.07
 91198,-0.0025122,-0.1704769,-0.0005867,0.0636061,-0.3017109,0.0007773,
 -0.0072577,0.0016992,-0.1326567,0.0001674,-0.0003967,-0.0006414,0.0686
 746,0.2784652,-0.0035621,0.1662673,-0.0137648,-0.076716,-0.0055546,0.1
 917779,-0.0021675,0.1117939,-0.0724569,0.0003468,-0.0898011,0.0012015,
 -0.1494534,0.000246,-0.1539342,0.001353,-0.1169655,0.0681479,0.0001053
 ,0.0152779,0.000245,-0.1366456,-0.0004932,0.0053471,-0.0012234,0.10979
 77,-0.0360362,-0.0005509,0.0799575,-0.0088937,0.1269181,0.0039044,-0.0
 014621,0.0001538,0.1207662,-0.0867821,-0.0003493,0.0849003,-0.0010378,
 0.133993,0.0002117,0.0719305,-0.0001833,0.027845,0.0505178,0.0007964,-
 0.0487947,0.017073,0.1275025,0.0093352,-0.1234022,0.0008442,0.041535,0
 .0580971,-0.0000338,-0.0011217,-0.0002477,0.1334308,0.000565,-0.002151
 4,0.000222,-0.1253176,0.0682763,-0.000027,0.0036679,-0.0002591,0.12128
 03,-0.0013143,0.0001917,-0.0002052,-0.1276042,-0.0852372,0.0001742,-0.
 0833057,0.0005627,0.1311273,0.0000683,-0.0736424,-0.0000191,0.0298821,
 -0.0482514,-0.0646662,0.0355505,-0.1192126,-0.0542374,-0.0175044,0.015
 8164,-0.0544017,0.036435,0.0318955,-0.0021238,-0.0772961,0.0013659,0.0
 739,-0.0057062,0.0358842,-0.0044117,-0.1377381,-0.0507358,0.0658936,0.
 030726,0.1212978,-0.0454608,0.0215935,0.0060967,0.0594044,0.0324167,-0
 .0846181,-0.0055443,0.0316781,-0.0113407,0.0746514,0.0036476,0.139741,
 0.0079509,-0.0281978,-0.0044611,0.0215889,-0.0238732,-0.0408817,-0.041
 2206,-0.1148559,-0.0584372,-0.0884791,-0.0163263,-0.0101875,-0.0140657
 ,-0.0366239,0.046027,-0.0588895,0.107469,-0.0625396,0.0816028,0.001858
 9\Polar=116.6456972,-0.0555519,59.8641222,0.6286655,-0.0866261,102.287
 933\PG=C01 [X(C8H10)]\NImag=1\\0.72621738,-0.00022813,0.13092863,0.021
 61926,-0.00029705,0.65990093,-0.12477467,0.00009379,0.02825027,0.64671
 699,0.00003106,-0.06834165,-0.00000265,0.00022759,0.17329403,-0.037073
 65,0.00013922,-0.30498763,0.01463643,-0.00009581,0.64533302,0.02916195
 ,-0.00010631,-0.07537926,-0.27436145,0.00001008,-0.04802606,0.65923023
 ,0.00000621,0.00897081,-0.00003707,0.00000502,-0.06479979,0.00000654,-
 0.00020857,0.13304074,-0.03076538,0.00001723,-0.02653796,-0.11701164,0
 .00002010,-0.17181398,0.00736857,0.00041460,0.71747359,-0.01604502,0.0
 0006720,0.03111581,-0.05754011,0.00004929,-0.02573419,-0.25739243,0.00
 015235,0.11229059,0.63127772,-0.00006433,-0.00554961,-0.00004018,0.000
 02426,0.00463648,-0.00009561,0.00009564,-0.06814950,-0.00001752,-0.000
 71841,0.17388922,0.03115437,-0.00001854,-0.05225298,0.02452581,-0.0000
 1664,0.06774095,0.04655781,-0.00017377,-0.17228951,-0.00571206,-0.0004
 7139,0.66132608,-0.05885878,0.00000904,0.02552172,-0.01654031,0.000039
 99,-0.03279040,0.03261456,0.00005447,0.02870521,-0.12598784,0.00002781
 ,0.03241810,0.71552510,-0.00004581,0.00844143,0.00005471,-0.00008012,-
 0.00601366,-0.00008075,0.00015232,0.00907237,0.00002114,-0.00009356,-0
 .06652498,0.00034759,0.00024713,0.13112687,-0.02202496,0.00000020,0.06
 282993,-0.02982676,-0.00001462,-0.05215368,0.07359258,0.00007951,-0.03
 025065,-0.03583784,0.00015324,-0.31959292,-0.03006776,-0.00055229,0.67
 088941,-0.28614583,-0.00000496,0.06081559,0.03421358,0.00000940,0.0785
 3271,-0.06670465,-0.00005288,0.00156045,0.03392823,-0.00007728,-0.0781
 5768,-0.27929725,0.00006392,-0.05290222,0.66053889,-0.00004443,-0.0613
 8876,0.00009819,-0.00005828,0.00701703,0.00000706,-0.00000211,-0.00561
 835,0.00001017,0.00009116,0.00671043,0.00003044,0.00002450,-0.06280172
 ,0.00006156,0.00003963,0.13533460,0.12491461,0.00005803,-0.18153067,0.
 02917326,0.00003292,-0.02866833,0.00078433,-0.00001230,-0.00181673,-0.
 02977812,0.00007932,-0.02698765,-0.11693141,0.00005185,-0.17437612,-0.
 00452890,-0.00045099,0.73216771,-0.00115984,0.00004584,0.00814533,-0.1
 7546556,-0.00017550,0.04924366,-0.02912741,-0.00006406,0.01496153,-0.0
 0086685,0.00000281,-0.00238005,-0.00223541,0.00000838,-0.00058887,0.00
 385194,0.00009020,-0.00316038,0.49550123,0.00002880,0.00314651,0.00001
 990,0.00015025,-0.06956466,-0.00012477,0.00005427,0.00559403,-0.000050
 42,0.00004934,0.00847371,-0.00000352,-0.00008238,-0.00104354,0.0000156
 0,0.00008101,0.00500034,-0.00007343,-0.00077522,0.53039114,0.03322790,
 0.00010254,-0.01830592,0.05599162,0.00011005,-0.12024024,-0.00973487,-
 0.00008157,0.01050912,-0.00261936,-0.00009827,-0.00212706,-0.00020184,
 -0.00000494,0.00045216,-0.00253876,0.00005877,-0.00495247,0.03855202,0
 .00032389,0.55644234,-0.00280969,-0.00000368,-0.00417616,0.00015966,0.
 00000045,-0.00068591,0.00175588,-0.00001137,-0.00064958,0.00104365,-0.
 00001058,-0.00177911,-0.25806124,-0.00030633,0.12098512,-0.01892532,-0
 .00000141,0.01663416,0.00004347,0.00000462,0.00008591,0.27505262,-0.00
 000840,0.00674562,0.00001081,0.00000683,-0.00083576,-0.00001252,0.0000
 1998,0.00647183,-0.00001349,-0.00010395,0.00341983,-0.00006897,-0.0003
 2132,-0.03475372,0.00022355,0.00002156,0.00245701,0.00001493,-0.000015
 25,-0.00078431,0.00000800,0.00031382,0.02448682,-0.00304444,0.00001200
 ,-0.00066316,-0.00088221,-0.00000011,-0.00091664,-0.00139560,0.0000129
 0,-0.00564210,0.02775607,0.00003182,-0.01186894,0.12019732,0.00016595,
 -0.13064790,-0.01474739,-0.00001149,0.01130830,0.00004637,-0.00000436,
 0.00011174,-0.12968365,-0.00020104,0.13644060,0.00011329,-0.00002220,-
 0.00122038,-0.00005033,0.00001101,0.00495901,-0.03225517,0.00016672,-0
 .01557739,-0.17846488,0.00049972,-0.05420227,-0.00138271,-0.00007307,-
 0.00576168,0.00039083,-0.00016725,0.00176225,-0.00037456,0.00002306,-0
 .00053658,0.00097648,0.00013606,0.00217734,0.50817089,0.00012534,-0.00
 115968,0.00009659,-0.00018592,0.00542174,-0.00004939,0.00000097,0.0030
 8283,-0.00005928,-0.00021395,-0.06956218,-0.00013586,-0.00007788,0.005
 81587,-0.00000265,-0.00009914,0.00794182,-0.00013860,-0.00002702,-0.00
 003943,0.00000040,-0.00000664,-0.00434341,0.00008732,0.00137745,0.5303
 5878,-0.00070369,-0.00001659,-0.00204006,0.00551510,-0.00021121,-0.000
 61487,0.00912440,-0.00018011,0.01238490,-0.04740761,0.00021363,-0.1171
 1431,-0.03088089,0.00023680,-0.01674523,0.00145169,0.00013245,-0.00345
 177,0.00078259,0.00002004,0.00068238,-0.00117975,-0.00008385,0.0009960
 2,-0.04626096,0.00097118,0.54306784,0.00478018,-0.00003169,0.02822822,
 -0.00440432,-0.00000890,0.00238296,-0.00131307,0.00000050,0.00004854,-
 0.00449318,0.00001413,-0.00234158,0.00439603,0.00003647,-0.02845989,-0
 .05909072,-0.00000809,-0.00290149,0.00048369,0.00001075,0.00116754,0.0
 0089799,-0.00000085,0.00052525,0.00033614,-0.00001895,-0.00105843,0.05
 811317,0.00001755,0.00340769,0.00000650,0.00001194,0.00757280,-0.00000
 392,-0.00000858,-0.00087895,-0.00000358,-0.00001573,0.00688210,-0.0000
 2983,-0.00000413,0.00332362,0.00002325,-0.00001703,-0.03681976,0.00032
 972,-0.00001088,0.00012955,0.00000065,0.00000460,-0.00386853,-0.000006
 60,0.00002362,0.00008433,0.00000140,0.00000263,0.02556085,-0.00306152,
 0.00001852,-0.01208027,0.00318378,0.00000951,0.00083312,0.00002762,0.0
 0000112,0.00081476,-0.00308509,0.00001203,0.00091592,0.00282564,0.0000
 1727,-0.01144695,-0.00280233,0.00030507,-0.33324273,-0.00044723,-0.000
 00616,-0.00061762,-0.00034175,-0.00000583,0.00081985,0.00038743,-0.000
 01209,-0.00050551,0.00295201,-0.00034161,0.35415436,-0.00474223,0.0000
 0546,-0.00236973,0.00236674,0.00000584,-0.02711853,-0.05786111,-0.0000
 0494,-0.00243384,0.00392616,-0.00000173,0.02753867,-0.00467417,0.00000
 078,0.00237903,-0.00110626,0.00000076,0.00003060,0.00129616,-0.0000420
 4,-0.00207085,0.00010689,0.00000568,0.00149728,0.00133287,0.00008872,0
 .00059414,0.00009393,-0.00000080,0.00000446,0.05978521,0.00000373,0.00
 660989,0.00000687,0.00006263,0.00363284,-0.00002215,0.00001802,-0.0360
 8814,-0.00036133,-0.00011382,0.00320507,-0.00006039,0.00000196,0.00651
 690,0.00002820,-0.00000485,-0.00090100,-0.00000188,0.00000078,-0.00447
 071,0.00008466,0.00000705,0.00029831,-0.00000209,-0.00000466,-0.002314
 82,0.00017241,-0.00000012,-0.00099219,-0.00000177,-0.00001647,0.024827
 45,-0.00322924,-0.00001314,0.00086035,0.00253735,-0.00000262,-0.014133
 77,-0.00338995,-0.00031459,-0.32515529,-0.00263891,-0.00001763,-0.0138
 3209,0.00326608,-0.00001611,0.00087814,-0.00005808,0.00000114,0.000624
 83,0.00151713,-0.00002028,0.00055812,-0.00004463,0.00000454,-0.0007241
 5,-0.00126668,-0.00006225,0.00074529,0.00000328,0.00000250,-0.00011015
 ,0.00268893,0.00033318,0.34877902,-0.26282667,0.00023373,-0.11675608,0
 .00163605,0.00001094,0.00141705,0.00172111,0.00000751,0.00055158,0.000
 13757,0.00000172,0.00068244,-0.00264457,0.00000126,0.00427130,-0.01925
 270,0.00001313,-0.01618214,0.00058456,0.00000687,0.00071938,-0.0010752
 0,0.00000113,-0.00077003,0.00001631,-0.00000879,-0.00002401,0.00094064
 ,-0.00000360,0.00033016,0.00012498,-0.00000376,0.00005415,0.27982496,0
 .00025443,-0.03528223,0.00015431,0.00005049,0.00299798,-0.00005079,-0.
 00000030,0.00629436,-0.00000904,-0.00001791,-0.00082213,-0.00001790,0.
 00000943,0.00736596,0.00001973,-0.00003008,0.00279319,0.00001647,-0.00
 007555,-0.00224062,-0.00004206,-0.00000483,0.00032332,-0.00000055,0.00
 002880,-0.00085371,0.00001624,0.00000067,-0.00422785,-0.00000602,-0.00
 000784,0.00024089,-0.00000166,-0.00024906,0.02453355,-0.11696461,0.000
 11650,-0.12589692,-0.02882075,0.00003181,-0.01074372,0.00134584,0.0000
 0390,-0.00563870,0.00088481,0.00000072,-0.00084975,0.00303238,0.000009
 23,-0.00087067,0.01551788,-0.00001036,0.01138106,-0.00091440,0.0000486
 3,0.00160096,0.00078525,0.00000023,0.00035200,-0.00007501,-0.00000701,
 0.00015816,-0.00050468,-0.00000477,0.00085673,-0.00148944,-0.00000201,
 -0.00075280,0.12629472,-0.00014520,0.13076762,0.00119359,0.00073529,-0
 .00189549,-0.01847935,-0.02200271,-0.00506943,-0.00191277,-0.00015247,
 0.00280356,-0.00047783,0.00157913,-0.00039843,0.00011027,-0.00014551,0
 .00035926,-0.00092940,0.00095275,0.00005300,-0.11490591,-0.11347896,-0
 .02895419,-0.00000100,-0.00017543,0.00005273,-0.00011817,-0.00001782,0
 .00022927,-0.00000452,-0.00003329,0.00003797,0.00001501,-0.00074810,0.
 00001906,0.00034737,-0.00068088,0.00035415,0.12849862,-0.00002352,0.00
 109526,-0.00062889,0.00106266,0.00295715,0.00115903,0.00042528,-0.0002
 4066,0.00031506,0.00022345,-0.00021319,-0.00012246,0.00022612,-0.00003
 231,0.00020395,-0.00040942,0.00020316,0.00030445,-0.11246642,-0.219349
 14,-0.04525312,0.00000536,-0.00004892,0.00002713,0.00001233,0.00001595
 ,0.00002193,-0.00004213,-0.00000657,0.00002805,0.00007140,0.00006708,0
 .00002759,-0.00002521,-0.00038073,0.00035928,0.12348300,0.23793420,0.0
 0127517,-0.00035890,-0.00017473,0.00921719,0.01454665,0.00370979,-0.00
 037261,0.00019876,-0.00096544,0.00054096,-0.00035751,-0.00041099,0.000
 76937,0.00011825,0.00045901,-0.00099253,-0.00024043,0.00039196,-0.0280
 3926,-0.04425538,-0.05852624,-0.00003059,-0.00008804,0.00001839,0.0000
 0932,-0.00006279,-0.00013273,-0.00003431,0.00000755,-0.00000963,0.0001
 6495,-0.00010407,0.00027269,-0.00023281,0.00005161,-0.00038444,0.02912
 794,0.05017940,0.05968319,-0.00545488,0.00000421,0.00165949,0.00514838
 ,0.00074912,0.02956978,0.00163202,-0.00001857,0.00157948,0.00001744,0.
 00000419,0.00011097,0.00002493,0.00000802,-0.00017258,0.00058996,-0.00
 004523,0.00138244,-0.05545594,-0.00106062,-0.04717712,-0.00001183,-0.0
 0000295,-0.00006640,0.00004750,0.00000298,-0.00007324,-0.00034967,-0.0
 0000204,0.00022850,-0.00039817,0.00000144,-0.00068259,0.00004208,0.000
 01427,0.00018949,-0.00340478,0.00104259,-0.01639170,0.06104343,0.00000
 527,0.00132061,-0.00000054,-0.00007319,-0.00164010,0.00024823,-0.00002
 529,-0.00001151,-0.00000653,0.00001674,-0.00021847,-0.00001308,0.00003
 065,0.00001655,0.00002844,-0.00006566,0.00050054,0.00002401,-0.0009457
 4,-0.04687364,-0.00658338,0.00000009,-0.00000090,0.00000177,-0.0000034
 3,-0.00001404,0.00000304,-0.00000183,-0.00015973,0.00000154,0.00002697
 ,0.00032908,0.00001481,-0.00000864,-0.00030382,-0.00001180,-0.00408846
 ,0.00017444,-0.02720231,0.00128823,0.04538984,0.00386185,-0.00005708,-
 0.00048566,-0.00368102,-0.00030815,-0.01625387,-0.00271275,0.00005003,
 0.00077524,0.00039988,0.00005267,0.00001055,0.00019465,-0.00000187,0.0
 0040676,-0.00090097,0.00001984,-0.00062853,-0.04269981,-0.00647170,-0.
 30224674,0.00007032,-0.00000886,0.00007364,-0.00001979,-0.00001068,-0.
 00000662,0.00026631,0.00000246,-0.00016080,0.00077545,-0.00004384,0.00
 096381,-0.00004395,-0.00000454,0.00033608,-0.00121276,-0.00030985,-0.0
 0555736,0.04697719,0.00716147,0.32943678,0.00126548,-0.00078377,-0.001
 95136,-0.01906123,0.02115432,-0.00625841,-0.00207877,0.00025878,0.0029
 6754,-0.00050855,-0.00152273,-0.00044924,0.00012233,0.00014425,0.00033
 411,-0.00088079,-0.00093649,0.00006574,-0.12208341,0.11501138,-0.03564
 609,0.00000026,0.00017380,0.00005840,-0.00013523,0.,0.00023650,-0.0000
 0233,0.00003418,0.00003572,0.00004044,0.00071202,0.00003691,0.00037730
 ,0.00069809,0.00040302,0.01015549,-0.01357947,0.00500820,-0.00347368,0
 .00384165,-0.00136623,0.13635817,0.00001898,0.00110178,0.00061351,-0.0
 0144336,0.00277105,-0.00114274,-0.00039809,-0.00022867,-0.00029467,-0.
 00030291,-0.00021692,0.00019018,-0.00021390,-0.00002990,-0.00024983,0.
 00038885,0.00018393,-0.00029662,0.11439958,-0.20819353,0.05137171,-0.0
 0000859,-0.00004035,-0.00002673,-0.00001291,0.00001260,-0.00002308,0.0
 0004165,-0.00000851,-0.00002684,-0.00006345,0.00008862,-0.00000872,0.0
 0001582,-0.00035159,-0.00039365,0.01480126,-0.02218691,0.00753995,-0.0
 0198253,0.00151554,-0.00007346,-0.12524198,0.22557443,0.00123960,0.000
 30245,-0.00008582,0.00958487,-0.01422800,0.00442045,-0.00016103,-0.000
 15658,-0.00106902,0.00051312,0.00037563,-0.00029748,0.00073143,-0.0001
 1744,0.00040340,-0.00094216,0.00014348,0.00040751,-0.03488657,0.050585
 01,-0.06321334,-0.00003287,0.00009979,0.00001951,0.00002361,0.00006797
 ,-0.00013163,-0.00003828,-0.00000106,-0.00000453,0.00019044,0.00009515
 ,0.00028625,-0.00023788,0.00001514,-0.00037102,0.00456522,-0.00631266,
 0.00158291,-0.01713307,0.02633751,-0.00671601,0.03659644,-0.05717478,0
 .06473062,0.00025626,-0.00001399,-0.00031710,-0.00049990,0.00007649,0.
 00155377,-0.00406751,-0.00009893,-0.00459594,-0.02229715,-0.00127046,0
 .01901086,0.00161959,0.00009269,0.00273928,-0.00016757,0.00007062,-0.0
 0032040,-0.00020902,0.00000829,-0.00029249,0.00059484,-0.00006821,-0.0
 0127968,-0.20391078,-0.01015495,0.12645833,0.00000149,-0.00000240,-0.0
 0000906,0.00018188,-0.00002264,-0.00004981,0.00004130,-0.00001194,-0.0
 0010616,-0.00009128,-0.00001170,0.00001037,0.00004741,-0.00000095,0.00
 000059,-0.00010100,0.00001085,0.00001502,0.22408228,0.00001557,0.00000
 670,-0.00008002,0.00011104,0.00053291,0.00009120,0.00000050,0.00131418
 ,-0.00000369,0.00051188,-0.00166030,-0.00016105,0.00001723,-0.00000084
 ,0.00005718,-0.00003474,-0.00022258,-0.00001636,0.00000615,-0.00018600
 ,0.00000278,-0.00000991,0.00030608,-0.00005190,-0.01049385,-0.04733701
 ,0.00814782,-0.00000264,-0.00004285,-0.00000051,-0.00001175,-0.0003046
 2,0.00002660,0.00000307,0.00001012,-0.00000101,-0.00003437,0.00000624,
 0.00002027,-0.00000006,-0.00000811,-0.00000009,0.00003615,0.00000586,-
 0.00002451,0.01113626,0.04598078,0.00002447,-0.00001361,0.00005674,-0.
 00075792,0.00005827,0.00056187,-0.00242790,0.00005355,-0.00193934,-0.0
 1418995,-0.00099652,0.01094766,-0.00144816,-0.00002257,0.00095868,0.00
 001173,-0.00005562,0.00027994,-0.00011681,0.00000160,-0.00011396,0.000
 18090,0.00004071,-0.00003105,0.13087730,0.00822663,-0.15350605,0.00006
 608,0.00000511,0.00004249,-0.00029154,-0.00002045,0.00019669,0.0000340
 1,0.00001351,0.00001173,-0.00002187,0.00000700,0.00000816,0.00000400,-
 0.00000065,0.00000921,-0.00002339,-0.00000736,0.00001283,-0.13896472,-
 0.00928118,0.16607615,-0.00009482,-0.00020428,-0.00060073,0.00047075,0
 .00058989,0.00021173,0.00059245,0.00063623,-0.00089608,-0.00239139,-0.
 02247165,-0.01940411,-0.00263683,-0.00024866,0.00034731,-0.00040934,0.
 00102042,-0.00056044,0.00006149,-0.00002365,0.00001913,0.00012257,-0.0
 0025453,-0.00022978,-0.04685969,-0.01035416,-0.00607458,-0.00020738,0.
 00006330,-0.00014032,-0.00024634,-0.00029187,0.00063907,0.00000252,-0.
 00000196,0.00003657,0.00000134,0.00000539,-0.00001086,-0.00002417,-0.0
 0001548,0.00004508,0.00000900,-0.00000398,-0.00001698,0.00176319,0.020
 69776,0.01453427,0.05032008,-0.00013598,-0.00002381,0.00033708,-0.0004
 0384,0.00016556,-0.00023551,0.00051770,0.00109240,-0.00031878,-0.00017
 632,0.00268203,0.00202639,-0.00006624,-0.00022563,0.00046876,0.0003418
 1,-0.00020359,0.00017525,-0.00001865,-0.00000269,-0.00005064,0.0000318
 0,0.00010429,0.00005335,-0.00958594,-0.20232184,-0.12671463,-0.0000026
 3,0.00001703,0.00000609,-0.00037940,-0.00034503,0.00020869,-0.00001867
 ,-0.00003979,0.00002407,-0.00000806,-0.00000045,0.00002014,-0.00001374
 ,-0.00000533,0.00003178,-0.00000820,0.00000382,0.00001333,0.00095362,0
 .00212589,0.00228183,0.00945972,0.21907231,-0.00018581,-0.00006810,0.0
 0066744,-0.00079498,0.00077130,-0.00096735,0.00242913,0.00055210,0.000
 61597,-0.00282272,-0.01108982,-0.01232260,-0.00276977,-0.00021763,-0.0
 0057855,0.00030983,0.00110222,-0.00049014,-0.00001072,-0.00001922,-0.0
 0000844,-0.00007478,-0.00064140,0.00022108,-0.00544375,-0.12669252,-0.
 14430702,-0.00016279,-0.00002459,-0.00013419,-0.00007674,-0.00065721,0
 .00031505,-0.00005783,-0.00022101,0.00002490,-0.00002527,0.00000043,0.
 00002178,-0.00000388,-0.00001037,0.00002314,-0.00002549,0.00000451,0.0
 0001000,-0.00153162,-0.01596825,-0.01251851,0.01045596,0.13911156,0.15
 731169,-0.00007571,0.00020443,-0.00068941,0.00046507,-0.00077838,0.000
 24949,0.00036613,-0.00067601,-0.00090721,-0.00386556,0.02388776,-0.017
 17451,-0.00209371,0.00023785,0.00063458,-0.00060361,-0.00103988,-0.000
 43711,0.00006137,0.00003423,0.00000863,0.00012996,0.00027204,-0.000211
 58,-0.04783280,0.01956979,-0.01072887,-0.00017808,-0.00005934,-0.00012
 601,-0.00024200,0.00039864,0.00059794,0.00000241,0.00002416,0.00003095
 ,0.00000331,0.00000028,-0.00001879,-0.00002003,0.00001907,0.00004598,-
 0.00000348,-0.00000530,-0.00001092,0.00275597,-0.02194828,0.01250950,-
 0.00047343,-0.00048698,0.00079123,0.05160420,0.00004366,-0.00002918,-0
 .00031208,0.00043821,0.00019606,0.00026268,-0.00054553,0.00108203,0.00
 034003,0.00059515,0.00301840,-0.00130120,0.00007752,-0.00025328,-0.000
 54378,-0.00015015,-0.00018630,-0.00009675,0.00002054,0.00001299,0.0000
 5053,-0.00000444,0.00006279,-0.00008738,0.01808453,-0.22478781,0.11729
 253,0.00001101,0.00002697,0.00000163,0.00032280,-0.00039961,-0.0001620
 3,0.00002256,-0.00005687,-0.00001855,0.00001464,0.00000539,-0.00001314
 ,0.00001069,-0.00001096,-0.00002814,0.00000801,-0.00000125,-0.00002044
 ,-0.00069265,-0.00052645,-0.00029025,0.00139751,-0.02209517,0.01406802
 ,-0.01965407,0.24394225,-0.00026393,0.00007632,0.00072639,-0.00084040,
 -0.00070077,-0.00110512,0.00236974,-0.00041704,0.00054515,-0.00367540,
 0.01226539,-0.01099489,-0.00257166,-0.00000918,-0.00061481,0.00037116,
 -0.00120150,-0.00041616,-0.00000453,0.00001456,-0.00000478,-0.00006288
 ,0.00072145,0.00013282,-0.00983179,0.11778304,-0.11947880,-0.00013873,
 0.00003682,-0.00012484,-0.00001329,0.00055671,0.00022803,-0.00005005,0
 .00021177,0.00001878,-0.00002472,-0.00000632,0.00001366,-0.00000077,0.
 00000784,0.00002037,-0.00002239,-0.00000137,0.00001535,-0.00232123,0.0
 1724272,-0.01105324,0.00164476,-0.01743876,0.01211574,0.01543612,-0.12
 914168,0.12997635\\0.00008579,-0.00001987,-0.00000223,-0.00008273,0.00
 002622,-0.00000076,0.00000398,-0.00001578,0.00000303,-0.00000132,0.000
 00004,-0.00000741,0.00000474,0.00000511,0.00000746,-0.00000773,0.00000
 178,0.00000571,0.00000019,0.00000413,0.00000066,0.00000046,-0.00000096
 ,-0.00000027,0.00000738,-0.00000118,0.00000303,0.00000077,0.00000017,0
 .00000073,0.00000036,-0.00000091,-0.00000245,-0.00000170,0.00000111,0.
 00000020,-0.00000083,-0.00000363,0.00000139,0.00000045,-0.00000035,-0.
 00000678,-0.00000426,0.00000164,0.00000058,-0.00000164,-0.00000344,-0.
 00000208,0.00000002,0.00000337,-0.00000326,-0.00000393,0.00000257,0.00
 000245\\\@


 MUD THROWN IS GROUND LOST -- FROM A TEA BAG
 Job cpu time:  0 days  1 hours 31 minutes 27.4 seconds.
 File lengths (MBytes):  RWF=    117 Int=      0 D2E=      0 Chk=     13 Scr=      1
 Normal termination of Gaussian 03 at Tue Apr 17 22:40:33 2012.
