[Molden Format]
[Atoms] Angs
 C     1  6    -1.217296    -0.007141    -0.663267
 C     2  6    -1.217296    -0.007141     0.732699
 C     3  6     0.023750    -0.007141     1.381997
 C     4  6     1.213597    -0.002028     0.661770
 C     5  6     1.213433     0.001167    -0.738864
 C     6  6    -0.023502    -0.002150    -1.385890
 C     7  6    -2.505771     0.014541     1.519814
 C     8  6     2.509522     0.002099    -1.514012
 H     9  1     2.159238    -0.003682     1.195835
 H    10  1    -0.058606    -0.003867    -2.470922
 H    11  1     0.058220    -0.012709     2.467373
 H    12  1    -2.162326    -0.012972    -1.197681
 H    13  1    -3.353152    -0.295527     0.904359
 H    14  1    -2.456070    -0.651355     2.385610
 H    15  1    -2.722326     1.020561     1.895729
 H    16  1     2.327510     0.024192    -2.590435
 H    17  1     3.123829     0.871879    -1.260906
 H    18  1     3.105058    -0.889755    -1.294440
[FREQ]
  -25.0526
   42.9307
  135.7451
  285.3333
  308.1607
  386.1938
  415.5539
  463.6339
  495.0777
  658.3678
  720.2065
  728.8685
  809.3506
  836.1837
  847.2015
  954.1735
  977.3232
  986.5838
 1021.4208
 1039.6147
 1059.7382
 1063.2963
 1140.1916
 1207.4817
 1221.4153
 1236.8160
 1324.1352
 1340.8749
 1413.0268
 1414.3969
 1434.8026
 1486.7828
 1488.4688
 1490.1185
 1502.2421
 1546.7019
 1612.9548
 1656.1444
 3019.6805
 3021.7812
 3069.3268
 3071.0263
 3098.6075
 3099.2563
 3145.6820
 3148.9815
 3162.9631
 3167.4458
[INT]
    0.1426
    0.2643
    1.9690
    0.7509
    0.0036
    0.1332
    0.0108
    0.0581
   21.0774
    0.0015
    0.0089
    0.0890
   43.1195
    0.1503
    0.0315
    0.0808
    0.0016
    0.2993
    2.3261
    3.6045
    1.3777
    9.1730
    7.5940
    0.0055
    0.0348
    2.9233
    0.1606
    0.3463
    0.7745
    0.5071
    0.0199
    4.7857
    4.8637
    4.4090
   19.9856
   29.1540
    0.6800
    0.0050
   38.4185
   32.9688
   16.5460
   21.6011
   16.8094
   19.3459
   12.2140
   12.1615
   41.4129
    5.3400
[FR-COORD]
 C    -2.300356    -0.013495    -1.253393
 C    -2.300356    -0.013495     1.384600
 C     0.044881    -0.013495     2.611596
 C     2.293366    -0.003832     1.250564
 C     2.293056     0.002205    -1.396251
 C    -0.044412    -0.004063    -2.618952
 C    -4.735221     0.027479     2.872032
 C     4.742309     0.003967    -2.861068
 H     4.080368    -0.006958     2.259800
 H    -0.110749    -0.007308    -4.669366
 H     0.110020    -0.024017     4.662659
 H    -4.086204    -0.024514    -2.263289
 H    -6.336538    -0.558465     1.708991
 H    -4.641299    -1.230882     4.508149
 H    -5.144450     1.928581     3.582408
 H     4.398356     0.045716    -4.895212
 H     5.903181     1.647612    -2.382767
 H     5.867709    -1.681393    -2.446137
[FR-NORM-COORD]
vibration     1
    0.000000     0.000000     0.020000
    0.000000     0.000000     0.010000
    0.000000     0.000000    -0.020000
    0.000000     0.000000    -0.040000
    0.000000     0.000000    -0.020000
    0.000000     0.000000     0.010000
    0.000000     0.000000     0.010000
    0.000000     0.000000     0.020000
    0.000000     0.000000    -0.070000
    0.000000     0.000000     0.010000
    0.000000     0.000000    -0.050000
    0.000000     0.000000     0.040000
    0.000000     0.010000     0.050000
    0.000000     0.020000    -0.010000
    0.010000    -0.030000     0.010000
    0.000000     0.010000    -0.530000
   -0.030000     0.490000     0.340000
    0.030000    -0.500000     0.320000
vibration     2
    0.000000     0.000000    -0.010000
    0.000000     0.000000     0.010000
    0.000000     0.000000     0.040000
    0.000000     0.000000     0.030000
    0.000000     0.000000     0.000000
    0.000000     0.000000    -0.020000
    0.000000    -0.010000    -0.020000
    0.000000     0.000000    -0.010000
    0.000000     0.000000     0.050000
    0.000000     0.000000    -0.040000
    0.000000     0.000000     0.060000
    0.000000     0.000000    -0.020000
    0.010000     0.170000     0.510000
    0.010000     0.370000    -0.460000
   -0.020000    -0.570000    -0.150000
    0.000000     0.000000    -0.010000
    0.010000    -0.010000    -0.020000
   -0.010000     0.000000    -0.020000
vibration     3
    0.000000     0.000000     0.130000
    0.000000     0.000000     0.040000
    0.000000     0.000000     0.110000
    0.000000     0.000000     0.110000
    0.000000     0.000000     0.040000
    0.000000     0.000000     0.130000
    0.000000     0.000000    -0.230000
    0.000000     0.000000    -0.230000
    0.000000     0.000000     0.100000
    0.000000     0.000000     0.130000
    0.000000     0.000000     0.100000
    0.000000     0.000000     0.130000
    0.060000    -0.030000    -0.410000
    0.130000    -0.070000    -0.230000
   -0.210000     0.100000    -0.280000
    0.010000     0.000000    -0.440000
    0.180000     0.120000    -0.230000
   -0.180000    -0.120000    -0.240000
vibration     4
   -0.010000     0.100000     0.000000
    0.000000     0.080000     0.000000
    0.010000     0.100000     0.000000
   -0.010000     0.100000     0.000000
    0.000000     0.080000     0.000000
    0.010000     0.100000     0.000000
    0.010000    -0.210000     0.000000
   -0.010000    -0.210000     0.000000
    0.000000     0.100000     0.010000
    0.010000     0.100000     0.000000
    0.010000     0.100000    -0.010000
   -0.010000     0.100000     0.000000
   -0.240000    -0.320000    -0.020000
    0.200000    -0.330000     0.020000
    0.060000    -0.290000     0.010000
    0.260000    -0.320000     0.000000
   -0.150000    -0.320000     0.000000
   -0.140000    -0.320000     0.000000
vibration     5
    0.000000     0.000000     0.130000
    0.000000     0.000000     0.220000
    0.000000     0.000000     0.150000
    0.000000     0.000000    -0.150000
    0.010000     0.000000    -0.220000
    0.000000     0.000000    -0.130000
   -0.010000     0.000000    -0.110000
    0.010000     0.000000     0.110000
    0.000000     0.000000    -0.210000
    0.000000     0.000000    -0.170000
    0.000000     0.000000     0.220000
    0.000000     0.000000     0.170000
    0.080000    -0.020000    -0.290000
    0.190000    -0.030000    -0.190000
   -0.320000     0.050000    -0.210000
    0.000000     0.000000     0.330000
   -0.260000    -0.070000     0.180000
    0.280000     0.070000     0.190000
vibration     6
    0.070000     0.100000     0.010000
    0.000000     0.140000     0.000000
   -0.080000     0.100000    -0.010000
   -0.080000    -0.100000     0.010000
    0.000000    -0.140000     0.000000
    0.070000    -0.100000    -0.010000
    0.000000    -0.130000     0.000000
    0.010000     0.130000     0.000000
   -0.200000    -0.170000     0.030000
    0.190000    -0.160000    -0.030000
   -0.200000     0.170000    -0.030000
    0.190000     0.170000     0.030000
   -0.270000    -0.250000    -0.010000
    0.220000    -0.260000     0.010000
    0.060000    -0.230000     0.000000
   -0.270000     0.240000     0.000000
    0.150000     0.240000     0.000000
    0.150000     0.240000     0.000000
vibration     7
    0.010000     0.010000    -0.210000
    0.000000     0.010000    -0.010000
   -0.010000     0.010000     0.200000
   -0.010000    -0.010000    -0.200000
    0.000000    -0.010000     0.010000
    0.000000    -0.010000     0.210000
    0.000000    -0.010000     0.000000
    0.000000     0.010000     0.000000
   -0.010000    -0.010000    -0.450000
    0.010000    -0.010000     0.460000
   -0.020000     0.010000     0.440000
    0.010000     0.010000    -0.470000
   -0.020000    -0.020000     0.010000
    0.000000    -0.020000     0.010000
    0.020000    -0.020000     0.010000
   -0.020000     0.010000    -0.020000
    0.030000     0.010000    -0.010000
   -0.020000     0.010000    -0.010000
vibration     8
    0.030000     0.090000     0.010000
    0.220000     0.000000    -0.010000
    0.030000    -0.100000     0.010000
   -0.030000    -0.100000     0.000000
   -0.220000     0.000000    -0.030000
   -0.030000     0.090000     0.000000
    0.320000     0.010000    -0.010000
   -0.320000     0.010000     0.000000
    0.110000    -0.020000     0.020000
    0.110000     0.010000     0.020000
   -0.110000    -0.010000     0.040000
   -0.100000     0.010000     0.040000
    0.310000     0.000000     0.000000
    0.310000     0.000000     0.000000
    0.330000     0.010000     0.000000
   -0.330000     0.010000     0.010000
   -0.340000     0.010000     0.010000
   -0.290000     0.010000     0.010000
vibration     9
    0.000000     0.000000    -0.070000
    0.010000     0.000000     0.230000
    0.000000     0.000000    -0.070000
    0.000000     0.000000    -0.070000
   -0.010000     0.000000     0.230000
    0.000000     0.000000    -0.070000
    0.010000     0.000000     0.000000
   -0.020000     0.000000     0.000000
    0.010000     0.000000    -0.400000
    0.010000     0.000000    -0.400000
    0.000000     0.000000    -0.410000
    0.000000     0.000000    -0.390000
    0.080000     0.000000    -0.110000
    0.170000     0.000000    -0.100000
   -0.230000     0.000000    -0.090000
   -0.010000     0.000000    -0.100000
    0.190000     0.000000    -0.100000
   -0.230000     0.000000    -0.100000
vibration    10
   -0.280000     0.210000     0.000000
    0.000000     0.110000     0.000000
    0.290000     0.210000     0.000000
    0.290000    -0.210000     0.000000
    0.000000    -0.110000     0.000000
   -0.280000    -0.210000     0.000000
   -0.010000     0.050000     0.000000
   -0.010000    -0.050000     0.000000
    0.190000    -0.260000     0.010000
   -0.170000    -0.270000     0.000000
    0.190000     0.260000     0.000000
   -0.170000     0.270000     0.000000
    0.060000     0.090000     0.010000
   -0.070000     0.090000    -0.010000
   -0.030000     0.090000     0.000000
    0.060000    -0.080000     0.000000
   -0.050000    -0.090000     0.000000
   -0.050000    -0.090000     0.000000
vibration    11
   -0.040000     0.000000     0.160000
    0.000000     0.000000    -0.200000
   -0.030000     0.000000     0.160000
   -0.030000     0.010000    -0.150000
    0.010000     0.000000     0.200000
   -0.030000    -0.010000    -0.160000
    0.060000     0.000000    -0.040000
    0.060000     0.000000     0.030000
   -0.050000     0.000000    -0.370000
   -0.060000     0.000000    -0.380000
   -0.050000     0.010000     0.350000
   -0.050000     0.000000     0.370000
   -0.020000     0.010000     0.080000
   -0.110000    -0.010000     0.080000
    0.320000     0.000000     0.070000
    0.060000     0.000000    -0.080000
    0.280000     0.000000    -0.070000
   -0.170000     0.010000    -0.070000
vibration    12
    0.160000    -0.030000     0.030000
   -0.030000     0.000000    -0.060000
    0.150000     0.020000     0.030000
    0.150000    -0.020000    -0.040000
   -0.020000     0.000000     0.050000
    0.170000     0.020000    -0.040000
   -0.260000    -0.010000     0.000000
   -0.260000     0.010000     0.010000
    0.240000     0.030000    -0.060000
    0.260000    -0.030000    -0.060000
    0.240000    -0.030000     0.130000
    0.260000     0.030000     0.140000
   -0.280000    -0.010000     0.010000
   -0.300000     0.000000     0.010000
   -0.220000     0.000000     0.020000
   -0.250000     0.000000    -0.030000
   -0.210000     0.000000    -0.020000
   -0.350000     0.000000    -0.020000
vibration    13
    0.000000     0.010000    -0.070000
    0.010000     0.000000     0.060000
    0.000000    -0.010000    -0.070000
    0.000000    -0.010000    -0.070000
    0.000000     0.000000     0.060000
    0.000000     0.010000    -0.070000
    0.000000     0.000000     0.020000
    0.010000     0.000000     0.020000
    0.000000    -0.010000     0.440000
    0.000000     0.010000     0.470000
   -0.020000     0.000000     0.440000
   -0.020000     0.000000     0.470000
    0.060000    -0.010000    -0.090000
    0.130000     0.010000    -0.070000
   -0.200000     0.000000    -0.050000
    0.020000     0.000000    -0.100000
    0.180000     0.000000    -0.060000
   -0.170000     0.000000    -0.060000
vibration    14
    0.050000    -0.280000    -0.010000
   -0.080000     0.000000     0.010000
    0.040000     0.270000    -0.010000
   -0.050000     0.270000    -0.010000
    0.080000     0.000000     0.000000
   -0.050000    -0.280000    -0.010000
    0.170000     0.000000     0.000000
   -0.170000     0.010000     0.000000
   -0.260000     0.170000     0.050000
   -0.250000    -0.170000     0.060000
    0.250000     0.170000     0.030000
    0.250000    -0.170000     0.040000
    0.200000     0.010000    -0.010000
    0.210000    -0.010000     0.000000
    0.180000    -0.010000     0.000000
   -0.180000     0.010000    -0.010000
   -0.190000    -0.020000    -0.010000
   -0.220000    -0.010000    -0.010000
vibration    15
    0.000000     0.000000     0.070000
    0.000000     0.000000     0.000000
    0.000000     0.000000    -0.080000
    0.000000     0.000000    -0.080000
    0.000000     0.000000     0.010000
    0.000000     0.000000     0.070000
    0.000000     0.000000     0.000000
    0.000000     0.000000     0.000000
    0.000000     0.000000     0.500000
    0.000000     0.000000    -0.480000
    0.000000     0.000000     0.510000
    0.000000     0.000000    -0.480000
    0.010000     0.000000     0.010000
    0.000000     0.000000     0.000000
    0.000000     0.010000     0.000000
    0.000000     0.000000     0.010000
    0.000000     0.000000     0.000000
    0.000000     0.000000     0.000000
vibration    16
    0.000000     0.000000     0.090000
    0.000000     0.000000     0.000000
    0.000000     0.000000     0.060000
    0.000000     0.000000    -0.060000
    0.000000     0.000000     0.000000
    0.000000     0.000000    -0.080000
    0.000000     0.000000    -0.030000
    0.000000     0.000000     0.030000
    0.000000     0.000000     0.410000
    0.000000     0.000000     0.520000
    0.010000     0.000000    -0.410000
    0.010000     0.000000    -0.520000
   -0.050000     0.010000     0.070000
   -0.110000    -0.020000     0.060000
    0.150000     0.010000     0.040000
    0.000000     0.000000    -0.080000
    0.130000    -0.010000    -0.040000
   -0.140000     0.010000    -0.040000
vibration    17
    0.000000     0.000000    -0.080000
    0.000000     0.000000     0.000000
    0.000000     0.000000     0.100000
    0.000000     0.000000    -0.100000
    0.000000     0.000000     0.000000
    0.000000     0.000000     0.080000
    0.000000     0.010000     0.000000
    0.000000     0.000000     0.000000
    0.000000     0.000000     0.550000
    0.000000     0.000000    -0.430000
    0.000000     0.000000    -0.550000
    0.000000     0.000000     0.430000
   -0.030000    -0.010000     0.000000
    0.010000    -0.010000     0.010000
    0.020000    -0.010000     0.000000
    0.020000     0.000000     0.000000
    0.000000     0.000000     0.000000
   -0.020000    -0.010000     0.000000
vibration    18
   -0.020000     0.060000    -0.010000
    0.000000    -0.060000     0.000000
    0.020000     0.060000     0.000000
   -0.020000     0.060000     0.000000
    0.000000    -0.060000     0.000000
    0.020000     0.050000     0.000000
    0.000000    -0.100000     0.000000
    0.000000    -0.110000     0.000000
   -0.070000     0.040000     0.020000
    0.090000     0.020000    -0.010000
    0.090000     0.020000    -0.030000
   -0.080000     0.020000     0.030000
    0.460000     0.110000     0.020000
   -0.370000     0.140000    -0.040000
   -0.100000     0.190000     0.020000
   -0.520000     0.100000     0.000000
    0.280000     0.180000     0.050000
    0.260000     0.180000    -0.040000
vibration    19
   -0.020000     0.010000     0.000000
    0.010000     0.020000     0.000000
    0.020000    -0.070000     0.000000
    0.020000     0.060000     0.000000
    0.000000    -0.010000     0.000000
   -0.030000    -0.010000     0.000000
   -0.010000     0.110000     0.000000
   -0.010000    -0.100000     0.000000
    0.170000     0.150000     0.000000
   -0.060000     0.010000     0.000000
    0.160000    -0.150000     0.020000
   -0.050000    -0.010000    -0.010000
   -0.490000    -0.100000    -0.020000
    0.370000    -0.140000     0.050000
    0.110000    -0.200000    -0.020000
   -0.470000     0.090000     0.000000
    0.240000     0.160000     0.050000
    0.230000     0.170000    -0.040000
vibration    20
   -0.020000     0.200000    -0.010000
    0.030000     0.000000     0.020000
   -0.040000    -0.180000    -0.010000
   -0.030000     0.180000     0.000000
    0.030000     0.010000     0.000000
   -0.020000    -0.200000     0.000000
   -0.010000    -0.040000    -0.020000
   -0.010000     0.040000     0.000000
    0.200000     0.310000     0.000000
    0.280000    -0.370000     0.000000
    0.200000    -0.310000     0.020000
    0.290000     0.370000     0.030000
    0.120000     0.040000     0.040000
   -0.210000     0.040000     0.010000
    0.010000     0.080000     0.020000
    0.160000    -0.030000     0.000000
   -0.130000    -0.070000    -0.010000
   -0.120000    -0.070000     0.020000
vibration    21
    0.000000    -0.010000    -0.030000
    0.000000     0.000000     0.090000
    0.000000     0.010000    -0.030000
    0.000000    -0.010000     0.040000
    0.000000     0.000000    -0.110000
    0.000000     0.010000     0.040000
    0.000000     0.000000    -0.100000
    0.000000     0.000000     0.120000
   -0.010000    -0.020000    -0.120000
   -0.010000     0.020000    -0.160000
   -0.010000     0.010000     0.110000
   -0.010000    -0.010000     0.130000
   -0.130000     0.040000     0.190000
   -0.280000    -0.060000     0.150000
    0.430000     0.020000     0.080000
    0.010000     0.000000    -0.240000
    0.450000    -0.070000    -0.140000
   -0.460000     0.060000    -0.140000
vibration    22
    0.000000     0.010000     0.030000
    0.000000     0.000000    -0.110000
    0.000000    -0.010000     0.030000
    0.000000     0.010000     0.020000
    0.000000     0.000000    -0.090000
    0.000000    -0.010000     0.020000
    0.000000     0.000000     0.120000
    0.000000     0.000000     0.100000
    0.010000     0.020000    -0.090000
    0.010000    -0.020000    -0.110000
    0.010000    -0.020000    -0.120000
    0.010000     0.020000    -0.130000
    0.160000    -0.040000    -0.240000
    0.340000     0.080000    -0.190000
   -0.530000    -0.030000    -0.100000
    0.010000     0.000000    -0.200000
    0.380000    -0.060000    -0.120000
   -0.390000     0.050000    -0.110000
vibration    23
    0.080000    -0.020000     0.000000
    0.010000     0.030000     0.000000
   -0.070000    -0.010000     0.000000
    0.070000    -0.020000     0.000000
   -0.010000     0.030000     0.000000
   -0.080000    -0.020000     0.000000
    0.000000    -0.030000     0.000000
    0.000000    -0.030000     0.000000
    0.440000     0.190000     0.000000
   -0.450000     0.180000     0.000000
   -0.440000     0.190000     0.000000
    0.450000     0.180000     0.000000
    0.100000     0.020000     0.010000
   -0.090000     0.030000    -0.020000
   -0.030000     0.050000     0.010000
   -0.100000     0.010000     0.000000
    0.060000     0.040000     0.020000
    0.060000     0.050000    -0.020000
vibration    24
   -0.030000    -0.030000     0.000000
    0.030000     0.000000     0.000000
   -0.030000     0.040000     0.000000
    0.030000     0.040000     0.000000
   -0.030000     0.000000     0.000000
    0.030000    -0.030000     0.000000
   -0.010000     0.000000     0.000000
    0.010000     0.000000     0.000000
    0.420000     0.260000     0.000000
    0.430000    -0.260000     0.000000
   -0.420000     0.260000     0.000000
   -0.420000    -0.260000     0.000000
   -0.030000    -0.010000     0.000000
   -0.020000     0.010000     0.000000
   -0.010000     0.000000     0.000000
    0.040000    -0.010000     0.000000
    0.020000     0.010000     0.000000
    0.010000     0.010000     0.000000
vibration    25
    0.180000    -0.060000     0.000000
    0.340000    -0.030000     0.000000
    0.160000     0.090000     0.000000
   -0.160000     0.080000     0.000000
   -0.360000    -0.030000     0.000000
   -0.180000    -0.060000     0.000000
   -0.150000     0.010000     0.000000
    0.160000     0.010000     0.000000
   -0.250000     0.060000     0.000000
   -0.100000    -0.130000     0.000000
    0.270000     0.050000     0.000000
    0.120000    -0.120000    -0.010000
   -0.310000    -0.040000     0.000000
   -0.210000     0.010000     0.020000
   -0.190000    -0.020000    -0.020000
    0.320000    -0.040000     0.000000
    0.210000     0.000000    -0.030000
    0.210000     0.000000     0.030000
vibration    26
   -0.020000     0.040000     0.000000
    0.210000     0.000000     0.000000
   -0.010000    -0.040000     0.000000
   -0.020000     0.040000     0.000000
    0.210000     0.010000     0.000000
   -0.020000    -0.050000     0.000000
   -0.080000     0.000000     0.000000
   -0.070000     0.000000     0.000000
   -0.390000    -0.170000     0.000000
   -0.390000     0.170000     0.000000
   -0.410000     0.180000    -0.010000
   -0.390000    -0.170000    -0.010000
   -0.170000    -0.030000    -0.010000
   -0.160000     0.040000     0.000000
   -0.140000     0.010000    -0.020000
   -0.170000     0.030000     0.000000
   -0.140000    -0.030000     0.010000
   -0.140000    -0.020000    -0.010000
vibration    27
   -0.190000    -0.170000     0.000000
    0.030000     0.370000     0.000000
    0.230000    -0.150000     0.000000
   -0.230000    -0.150000     0.000000
   -0.040000     0.360000     0.000000
    0.190000    -0.170000     0.000000
   -0.020000    -0.080000     0.000000
    0.020000    -0.080000     0.000000
    0.090000     0.030000     0.000000
   -0.080000    -0.030000     0.000000
   -0.070000     0.020000     0.000000
    0.090000    -0.020000     0.000000
    0.230000     0.050000     0.050000
   -0.200000     0.120000    -0.110000
   -0.060000     0.270000     0.060000
   -0.240000     0.030000    -0.010000
    0.140000     0.200000     0.120000
    0.130000     0.210000    -0.110000
vibration    28
    0.040000     0.020000     0.000000
    0.000000     0.100000     0.000000
   -0.030000     0.010000     0.000000
   -0.030000    -0.010000     0.000000
    0.000000    -0.100000     0.000000
    0.040000    -0.020000     0.000000
    0.000000    -0.030000     0.000000
    0.000000     0.030000     0.000000
    0.410000     0.230000     0.000000
   -0.430000     0.240000     0.000000
    0.410000    -0.230000     0.000000
   -0.430000    -0.240000     0.000000
    0.060000     0.010000     0.030000
   -0.060000     0.050000    -0.050000
   -0.020000     0.100000     0.020000
    0.060000     0.000000     0.000000
   -0.040000    -0.070000    -0.040000
   -0.040000    -0.080000     0.040000
vibration    29
    0.010000     0.000000     0.000000
    0.000000     0.000000     0.000000
    0.000000     0.010000     0.000000
    0.000000     0.000000     0.000000
   -0.020000     0.000000     0.000000
   -0.010000     0.000000     0.000000
    0.010000     0.000000     0.000000
    0.140000    -0.010000     0.000000
    0.020000     0.000000     0.000000
    0.040000    -0.020000     0.000000
    0.040000    -0.010000     0.000000
    0.010000     0.000000     0.000000
   -0.050000    -0.020000     0.020000
   -0.050000     0.010000     0.020000
   -0.050000     0.000000    -0.020000
   -0.470000     0.220000     0.010000
   -0.530000    -0.050000     0.250000
   -0.530000    -0.040000    -0.260000
vibration    30
   -0.010000     0.000000     0.000000
   -0.020000     0.000000     0.000000
    0.000000     0.000000     0.000000
    0.000000    -0.010000     0.000000
    0.000000     0.000000     0.000000
    0.010000     0.000000     0.000000
    0.140000     0.010000    -0.010000
   -0.010000     0.000000     0.000000
    0.030000     0.010000     0.000000
    0.010000     0.010000     0.000000
    0.010000     0.000000     0.000000
    0.030000     0.020000     0.000000
   -0.470000    -0.190000     0.140000
   -0.500000     0.100000     0.250000
   -0.550000     0.000000    -0.250000
    0.050000    -0.020000     0.000000
    0.050000     0.000000    -0.030000
    0.050000     0.000000     0.030000
vibration    31
    0.150000    -0.020000     0.000000
   -0.010000     0.120000     0.000000
   -0.140000    -0.020000     0.000000
    0.140000    -0.020000     0.000000
    0.010000     0.120000     0.000000
   -0.150000    -0.020000     0.000000
    0.010000    -0.060000     0.000000
   -0.020000    -0.060000     0.000000
   -0.270000    -0.270000     0.000000
    0.280000    -0.280000     0.000000
    0.270000    -0.270000     0.000000
   -0.280000    -0.280000     0.000000
   -0.040000    -0.020000     0.120000
   -0.030000     0.110000    -0.150000
   -0.040000     0.290000     0.050000
    0.050000    -0.070000    -0.010000
    0.040000     0.210000     0.130000
    0.050000     0.220000    -0.120000
vibration    32
    0.000000     0.000000     0.000000
    0.000000     0.000000     0.000000
    0.000000     0.000000     0.000000
    0.000000     0.000000     0.000000
    0.000000     0.000000    -0.020000
    0.000000     0.000000     0.000000
    0.000000     0.000000     0.010000
    0.000000     0.000000    -0.050000
    0.000000     0.000000    -0.010000
    0.000000     0.000000     0.010000
    0.010000     0.000000     0.000000
    0.000000     0.000000     0.000000
   -0.020000    -0.040000    -0.100000
   -0.050000     0.070000    -0.040000
    0.050000    -0.040000     0.010000
    0.010000    -0.020000     0.700000
    0.310000     0.380000     0.070000
   -0.310000    -0.360000     0.030000
vibration    33
   -0.010000    -0.010000     0.000000
    0.000000     0.010000    -0.010000
    0.010000    -0.020000     0.000000
    0.010000     0.020000     0.000000
    0.000000    -0.010000     0.000000
   -0.010000     0.020000     0.000000
   -0.010000    -0.030000    -0.040000
    0.010000     0.030000    -0.010000
   -0.040000    -0.010000     0.000000
    0.050000    -0.010000     0.000000
   -0.060000     0.020000    -0.010000
    0.040000     0.010000     0.000000
   -0.060000     0.150000     0.580000
    0.330000    -0.200000    -0.010000
   -0.200000     0.470000     0.010000
   -0.170000     0.080000     0.100000
    0.090000    -0.170000    -0.160000
    0.010000    -0.280000     0.160000
vibration    34
    0.010000     0.020000     0.000000
    0.010000    -0.010000    -0.010000
   -0.010000     0.010000     0.000000
   -0.010000    -0.010000     0.000000
    0.000000     0.010000     0.000000
    0.010000    -0.020000     0.000000
   -0.020000     0.030000    -0.040000
   -0.010000    -0.030000    -0.010000
    0.030000     0.010000     0.000000
   -0.060000     0.020000     0.000000
    0.020000    -0.010000     0.000000
   -0.070000    -0.020000     0.000000
    0.290000     0.250000     0.290000
    0.100000    -0.430000     0.420000
   -0.230000    -0.220000    -0.150000
    0.200000    -0.100000     0.060000
   -0.030000     0.290000     0.190000
   -0.090000     0.230000    -0.170000
vibration    35
    0.030000    -0.010000     0.000000
    0.000000     0.050000     0.000000
   -0.020000    -0.010000     0.000000
    0.020000    -0.010000     0.000000
    0.000000     0.050000     0.000000
   -0.040000    -0.010000     0.000000
   -0.010000     0.020000     0.000000
    0.010000     0.030000     0.000000
   -0.040000    -0.050000     0.000000
    0.070000    -0.070000     0.000000
    0.040000    -0.050000     0.000000
   -0.060000    -0.070000     0.000000
    0.280000     0.080000    -0.150000
   -0.170000    -0.170000     0.300000
   -0.050000    -0.430000    -0.110000
   -0.320000     0.140000     0.010000
    0.110000    -0.340000    -0.260000
    0.100000    -0.350000     0.240000
vibration    36
   -0.090000    -0.090000     0.000000
    0.170000    -0.020000     0.000000
   -0.100000     0.110000     0.000000
   -0.100000    -0.110000     0.000000
    0.170000     0.010000     0.000000
   -0.090000     0.090000     0.000000
   -0.040000     0.000000     0.000000
   -0.040000     0.000000     0.000000
    0.450000     0.180000     0.000000
    0.400000    -0.170000     0.000000
    0.450000    -0.180000     0.000000
    0.400000     0.170000     0.000000
   -0.050000     0.000000     0.020000
   -0.020000    -0.010000     0.000000
   -0.040000     0.010000     0.000000
   -0.040000     0.000000     0.000000
   -0.030000     0.000000     0.000000
   -0.030000     0.000000     0.000000
vibration    37
    0.100000     0.200000     0.000000
   -0.020000    -0.320000     0.000000
   -0.080000     0.180000     0.000000
   -0.080000    -0.180000     0.000000
   -0.020000     0.320000     0.000000
    0.100000    -0.200000     0.000000
    0.010000     0.020000     0.000000
    0.010000    -0.020000     0.000000
    0.240000    -0.010000     0.000000
   -0.310000     0.010000     0.000000
    0.240000     0.010000     0.000000
   -0.310000    -0.020000     0.000000
   -0.240000    -0.050000     0.080000
    0.190000     0.040000    -0.130000
    0.050000     0.160000     0.050000
   -0.260000     0.080000     0.010000
    0.130000    -0.110000    -0.110000
    0.120000    -0.120000     0.100000
vibration    38
    0.280000     0.080000     0.000000
   -0.210000    -0.010000     0.000000
    0.290000    -0.080000     0.000000
   -0.290000    -0.080000     0.000000
    0.210000    -0.010000     0.000000
   -0.280000     0.080000     0.000000
    0.030000     0.000000     0.000000
   -0.030000     0.000000     0.000000
    0.290000     0.250000     0.000000
    0.270000    -0.230000     0.000000
   -0.290000     0.250000     0.000000
   -0.270000    -0.230000     0.000000
    0.000000    -0.020000    -0.020000
    0.030000     0.020000    -0.030000
    0.060000     0.010000     0.020000