 Entering Gaussian System, Link 0=/usr/local/g03/g03
 Initial command:
 /usr/local/g03/l1.exe /scratch/chaquin/31675.calcul.lct.jussieu.fr/Gau-16264.inp -scrdir=/scratch/chaquin/31675.calcul.lct.jussieu.fr/
 Entering Link 1 = /usr/local/g03/l1.exe PID=     16468.
  
 Copyright (c) 1988,1990,1992,1993,1995,1998,2003,2004, Gaussian, Inc.
                  All Rights Reserved.
  
 This is the Gaussian(R) 03 program.  It is based on the
 the Gaussian(R) 98 system (copyright 1998, Gaussian, Inc.),
 the Gaussian(R) 94 system (copyright 1995, Gaussian, Inc.),
 the Gaussian 92(TM) system (copyright 1992, Gaussian, Inc.),
 the Gaussian 90(TM) system (copyright 1990, Gaussian, Inc.),
 the Gaussian 88(TM) system (copyright 1988, Gaussian, Inc.),
 the Gaussian 86(TM) system (copyright 1986, Carnegie Mellon
 University), and the Gaussian 82(TM) system (copyright 1983,
 Carnegie Mellon University). Gaussian is a federally registered
 trademark of Gaussian, Inc.
  
 This software contains proprietary and confidential information,
 including trade secrets, belonging to Gaussian, Inc.
  
 This software is provided under written license and may be
 used, copied, transmitted, or stored only in accord with that
 written license.
  
 The following legend is applicable only to US Government
 contracts under FAR:
  
                    RESTRICTED RIGHTS LEGEND
  
 Use, reproduction and disclosure by the US Government is
 subject to restrictions as set forth in subparagraphs (a)
 and (c) of the Commercial Computer Software - Restricted
 Rights clause in FAR 52.227-19.
  
 Gaussian, Inc.
 340 Quinnipiac St., Bldg. 40, Wallingford CT 06492
  
  
 ---------------------------------------------------------------
 Warning -- This program may not be used in any manner that
 competes with the business of Gaussian, Inc. or will provide
 assistance to any competitor of Gaussian, Inc.  The licensee
 of this program is prohibited from giving any competitor of
 Gaussian, Inc. access to this program.  By using this program,
 the user acknowledges that Gaussian, Inc. is engaged in the
 business of creating and licensing software in the field of
 computational chemistry and represents and warrants to the
 licensee that it is not a competitor of Gaussian, Inc. and that
 it will not use this program in any manner prohibited above.
 ---------------------------------------------------------------
  

 Cite this work as:
 Gaussian 03, Revision C.02,
 M. J. Frisch, G. W. Trucks, H. B. Schlegel, G. E. Scuseria, 
 M. A. Robb, J. R. Cheeseman, J. A. Montgomery, Jr., T. Vreven, 
 K. N. Kudin, J. C. Burant, J. M. Millam, S. S. Iyengar, J. Tomasi, 
 V. Barone, B. Mennucci, M. Cossi, G. Scalmani, N. Rega, 
 G. A. Petersson, H. Nakatsuji, M. Hada, M. Ehara, K. Toyota, 
 R. Fukuda, J. Hasegawa, M. Ishida, T. Nakajima, Y. Honda, O. Kitao, 
 H. Nakai, M. Klene, X. Li, J. E. Knox, H. P. Hratchian, J. B. Cross, 
 C. Adamo, J. Jaramillo, R. Gomperts, R. E. Stratmann, O. Yazyev, 
 A. J. Austin, R. Cammi, C. Pomelli, J. W. Ochterski, P. Y. Ayala, 
 K. Morokuma, G. A. Voth, P. Salvador, J. J. Dannenberg, 
 V. G. Zakrzewski, S. Dapprich, A. D. Daniels, M. C. Strain, 
 O. Farkas, D. K. Malick, A. D. Rabuck, K. Raghavachari, 
 J. B. Foresman, J. V. Ortiz, Q. Cui, A. G. Baboul, S. Clifford, 
 J. Cioslowski, B. B. Stefanov, G. Liu, A. Liashenko, P. Piskorz, 
 I. Komaromi, R. L. Martin, D. J. Fox, T. Keith, M. A. Al-Laham, 
 C. Y. Peng, A. Nanayakkara, M. Challacombe, P. M. W. Gill, 
 B. Johnson, W. Chen, M. W. Wong, C. Gonzalez, and J. A. Pople, 
 Gaussian, Inc., Wallingford CT, 2004.
 
 ******************************************
 Gaussian 03:  AM64L-G03RevC.02 12-Jun-2004
                17-Apr-2012 
 ******************************************
 %chk=geom
 ----------------------------------------------------
 # B3LYP 6-311+G** geom=checkpoint freq pop=none test
 ----------------------------------------------------
 1/10=4,29=2,30=1,38=1/1,3;
 2/40=1/2;
 3/5=4,6=6,7=111,11=2,16=1,25=1,30=1,74=-5/1,2,3;
 4//1;
 5/5=2,38=5/2;
 8/6=4,10=90,11=11/1;
 11/6=1,8=1,9=11,15=111,16=1/1,2,10;
 10/6=1/2;
 7/8=1,10=1,25=1/1,2,3,16;
 1/10=4,30=1/3;
 99//99;
 ----------------------------------
 *** Vibrations 1,4-xylene **** 0 1
 ----------------------------------
 Z-Matrix taken from the checkpoint file:
 geom.chk
 Charge =  0 Multiplicity = 1
 C
 C,1,cc2
 C,2,cc3,1,ccc3
 C,3,cc4,2,ccc4,1,dih4,0
 C,4,cc5,3,ccc5,2,dih5,0
 C,5,cc6,4,ccc6,3,dih6,0
 C,2,cc7,3,ccc7,4,dih7,0
 C,5,cc8,4,ccc8,3,dih8,0
 H,4,hc9,3,hcc9,2,dih9,0
 H,6,hc10,5,hcc10,4,dih10,0
 H,3,hc11,2,hcc11,1,dih11,0
 H,1,hc12,2,hcc12,3,dih12,0
 H,7,hc13,2,hcc13,3,dih13,0
 H,7,hc14,2,hcc14,3,dih14,0
 H,7,hc15,2,hcc15,3,dih15,0
 H,8,hc16,5,hcc16,4,dih16,0
 H,8,hc17,5,hcc17,16,dih17,0
 H,8,hc18,5,hcc18,16,dih18,0
      Variables:
 cc2=1.39596647
 cc3=1.40063603
 ccc3=117.61793797
 cc4=1.39085955
 ccc4=121.19487503
 dih4=0.24625095
 cc5=1.40063792
 ccc5=121.18047417
 dih5=-0.1022448
 cc6=1.39594513
 ccc6=117.61972652
 dih6=-0.05494362
 cc7=1.51002879
 ccc7=120.95824061
 dih7=181.20566429
 cc8=1.51019883
 ccc8=120.87552021
 dih8=180.20410324
 hc9=1.08603127
 hcc9=119.35618465
 dih9=180.09104142
 hc10=1.08560059
 hcc10=119.46665661
 dih10=180.24590881
 hc11=1.08593713
 hcc11=119.43653402
 dih11=180.33730062
 hc12=1.08568592
 hcc12=119.48768194
 dih12=179.64648961
 hc13=1.09223689
 hcc13=111.35816429
 dih13=197.59367652
 hc14=1.09338513
 hcc14=111.42150159
 dih14=-41.78719561
 hc15=1.09557524
 hcc15=111.14332259
 dih15=77.76703661
 hc16=1.09192591
 hcc16=111.28111165
 dih16=181.09930774
 hc17=1.09451095
 hcc17=111.31426697
 dih17=120.25410023
 hc18=1.09465861
 hcc18=111.31217476
 dih18=239.78832854
 Recover connectivity data from disk.

 GradGradGradGradGradGradGradGradGradGradGradGradGradGradGradGradGradGrad
 Berny optimization.
 Initialization pass.
                       ----------------------------
                       !    Initial Parameters    !
                       ! (Angstroms and Degrees)  !
 ----------------------                            ----------------------
 !      Name          Value   Derivative information (Atomic Units)     !
 ------------------------------------------------------------------------
 !       cc2         1.396    calculate D2E/DX2 analytically            !
 !       cc3         1.4006   calculate D2E/DX2 analytically            !
 !      ccc3       117.6179   calculate D2E/DX2 analytically            !
 !       cc4         1.3909   calculate D2E/DX2 analytically            !
 !      ccc4       121.1949   calculate D2E/DX2 analytically            !
 !      dih4         0.2463   calculate D2E/DX2 analytically            !
 !       cc5         1.4006   calculate D2E/DX2 analytically            !
 !      ccc5       121.1805   calculate D2E/DX2 analytically            !
 !      dih5        -0.1022   calculate D2E/DX2 analytically            !
 !       cc6         1.3959   calculate D2E/DX2 analytically            !
 !      ccc6       117.6197   calculate D2E/DX2 analytically            !
 !      dih6        -0.0549   calculate D2E/DX2 analytically            !
 !       cc7         1.51     calculate D2E/DX2 analytically            !
 !      ccc7       120.9582   calculate D2E/DX2 analytically            !
 !      dih7       181.2057   calculate D2E/DX2 analytically            !
 !       cc8         1.5102   calculate D2E/DX2 analytically            !
 !      ccc8       120.8755   calculate D2E/DX2 analytically            !
 !      dih8       180.2041   calculate D2E/DX2 analytically            !
 !       hc9         1.086    calculate D2E/DX2 analytically            !
 !      hcc9       119.3562   calculate D2E/DX2 analytically            !
 !      dih9       180.091    calculate D2E/DX2 analytically            !
 !      hc10         1.0856   calculate D2E/DX2 analytically            !
 !      hcc10      119.4667   calculate D2E/DX2 analytically            !
 !      dih10      180.2459   calculate D2E/DX2 analytically            !
 !      hc11         1.0859   calculate D2E/DX2 analytically            !
 !      hcc11      119.4365   calculate D2E/DX2 analytically            !
 !      dih11      180.3373   calculate D2E/DX2 analytically            !
 !      hc12         1.0857   calculate D2E/DX2 analytically            !
 !      hcc12      119.4877   calculate D2E/DX2 analytically            !
 !      dih12      179.6465   calculate D2E/DX2 analytically            !
 !      hc13         1.0922   calculate D2E/DX2 analytically            !
 !      hcc13      111.3582   calculate D2E/DX2 analytically            !
 !      dih13      197.5937   calculate D2E/DX2 analytically            !
 !      hc14         1.0934   calculate D2E/DX2 analytically            !
 !      hcc14      111.4215   calculate D2E/DX2 analytically            !
 !      dih14      -41.7872   calculate D2E/DX2 analytically            !
 !      hc15         1.0956   calculate D2E/DX2 analytically            !
 !      hcc15      111.1433   calculate D2E/DX2 analytically            !
 !      dih15       77.767    calculate D2E/DX2 analytically            !
 !      hc16         1.0919   calculate D2E/DX2 analytically            !
 !      hcc16      111.2811   calculate D2E/DX2 analytically            !
 !      dih16      181.0993   calculate D2E/DX2 analytically            !
 !      hc17         1.0945   calculate D2E/DX2 analytically            !
 !      hcc17      111.3143   calculate D2E/DX2 analytically            !
 !      dih17      120.2541   calculate D2E/DX2 analytically            !
 !      hc18         1.0947   calculate D2E/DX2 analytically            !
 !      hcc18      111.3122   calculate D2E/DX2 analytically            !
 !      dih18      239.7883   calculate D2E/DX2 analytically            !
 ------------------------------------------------------------------------
 Trust Radius=3.00D-01 FncErr=1.00D-07 GrdErr=1.00D-07
 Number of steps in this run=   2 maximum allowed number of steps=   2.
 GradGradGradGradGradGradGradGradGradGradGradGradGradGradGradGradGradGrad

                          Input orientation:                          
 ---------------------------------------------------------------------
 Center     Atomic     Atomic              Coordinates (Angstroms)
 Number     Number      Type              X           Y           Z
 ---------------------------------------------------------------------
    1          6             0       -1.217296   -0.007141   -0.663267
    2          6             0       -1.217296   -0.007141    0.732699
    3          6             0        0.023750   -0.007141    1.381997
    4          6             0        1.213597   -0.002028    0.661770
    5          6             0        1.213433    0.001167   -0.738864
    6          6             0       -0.023502   -0.002150   -1.385890
    7          6             0       -2.505771    0.014541    1.519814
    8          6             0        2.509522    0.002099   -1.514012
    9          1             0        2.159238   -0.003682    1.195835
   10          1             0       -0.058606   -0.003867   -2.470922
   11          1             0        0.058220   -0.012709    2.467373
   12          1             0       -2.162326   -0.012972   -1.197681
   13          1             0       -3.353152   -0.295527    0.904359
   14          1             0       -2.456070   -0.651355    2.385610
   15          1             0       -2.722326    1.020561    1.895729
   16          1             0        2.327510    0.024192   -2.590435
   17          1             0        3.123829    0.871879   -1.260906
   18          1             0        3.105058   -0.889755   -1.294440
 ---------------------------------------------------------------------
                    Distance matrix (angstroms):
                    1          2          3          4          5
     1  C    0.000000
     2  C    1.395966   0.000000
     3  C    2.392342   1.400636   0.000000
     4  C    2.768572   2.431933   1.390860   0.000000
     5  C    2.431918   2.841480   2.431762   1.400638   0.000000
     6  C    1.395475   2.431787   2.768295   2.392348   1.395945
     7  C    2.535050   1.510029   2.533365   3.817095   4.351354
     8  C    3.822698   4.351662   3.816545   2.532482   1.510199
     9  H    3.854510   3.408150   2.143590   1.086031   2.153516
    10  H    2.147135   3.406723   3.853800   3.381163   2.148984
    11  H    3.380514   2.153152   1.085937   2.143645   3.408030
    12  H    1.085686   2.149299   3.381375   3.854158   3.406825
    13  H    2.665052   2.162063   3.422684   4.582596   4.862295
    14  H    3.353390   2.163720   2.751682   4.106057   4.863474
    15  H    3.141616   2.161927   2.976748   4.249687   4.844631
    16  H    4.034923   4.858997   4.592222   3.437779   2.161021
    17  H    4.469364   4.857211   4.167506   2.847698   2.163395
    18  H    4.456470   4.855002   4.175737   2.862244   2.163481
                    6          7          8          9         10
     6  C    0.000000
     7  C    3.821656   0.000000
     8  C    2.536266   5.861520   0.000000
     9  H    3.380778   4.676280   2.732398   0.000000
    10  H    1.085601   4.681338   2.740619   4.285316   0.000000
    11  H    3.854144   2.733616   4.675524   2.455844   4.939684
    12  H    2.147115   2.739250   4.682569   4.940133   2.459037
    13  H    4.051898   1.092237   6.348861   5.527800   4.725634
    14  H    4.534652   1.093385   6.347531   4.810001   5.454629
    15  H    4.370196   1.095575   6.327388   5.036724   5.216560
    16  H    2.641757   6.344670   1.091926   3.790109   2.389272
    17  H    3.268829   6.337178   1.094511   2.780758   3.515531
    18  H    3.253321   6.341859   1.094659   2.807342   3.489653
                   11         12         13         14         15
    11  H    0.000000
    12  H    4.285259   0.000000
    13  H    3.763038   2.432381   0.000000
    14  H    2.595420   3.651547   1.767901   0.000000
    15  H    3.020904   3.309226   1.764325   1.762436   0.000000
    16  H    5.543686   4.701039   6.677254   6.935418   6.827830
    17  H    4.907190   5.360074   6.928383   6.837586   6.645599
    18  H    4.919722   5.340734   6.848087   6.672761   6.912662
                   16         17         18
    16  H    0.000000
    17  H    1.766449   0.000000
    18  H    1.766205   1.762053   0.000000
 Stoichiometry    C8H10
 Framework group  C1[X(C8H10)]
 Deg. of freedom    48
 Full point group                 C1      NOp   1
 Largest Abelian subgroup         C1      NOp   1
 Largest concise Abelian subgroup C1      NOp   1
                         Standard orientation:                         
 ---------------------------------------------------------------------
 Center     Atomic     Atomic              Coordinates (Angstroms)
 Number     Number      Type              X           Y           Z
 ---------------------------------------------------------------------
    1          6             0       -0.698416    1.197470   -0.008028
    2          6             0       -1.420781    0.002936   -0.009069
    3          6             0       -0.694804   -1.194869   -0.008145
    4          6             0        0.696038   -1.194274   -0.001144
    5          6             0        1.420674    0.004338    0.003095
    6          6             0        0.697043    1.198073   -0.001143
    7          6             0       -2.930666   -0.003859    0.010564
    8          6             0        2.930851   -0.003048    0.006076
    9          1             0        1.228867   -2.140613   -0.002124
   10          1             0        1.228474    2.144703   -0.002090
   11          1             0       -1.226945   -2.141466   -0.014484
   12          1             0       -1.230531    2.143791   -0.014532
   13          1             0       -3.336875    0.961295   -0.300006
   14          1             0       -3.335253   -0.770408   -0.655921
   15          1             0       -3.311862   -0.213522    1.016057
   16          1             0        3.332086    1.012235    0.028766
   17          1             0        3.324362   -0.537559    0.876364
   18          1             0        3.328043   -0.499060   -0.885265
 ---------------------------------------------------------------------
 Rotational constants (GHZ):      5.4067170      1.4273194      1.1452585
 Standard basis: 6-311+G(d,p) (5D, 7F)
 There are   236 symmetry adapted basis functions of A   symmetry.
 Integral buffers will be    131072 words long.
 Raffenetti 2 integral format.
 Two-electron integral symmetry is turned on.
   236 basis functions,   368 primitive gaussians,   244 cartesian basis functions
    29 alpha electrons       29 beta electrons
       nuclear repulsion energy       339.7933983065 Hartrees.
 NAtoms=   18 NActive=   18 NUniq=   18 SFac= 1.00D+00 NAtFMM=   60 Big=F
 One-electron integrals computed using PRISM.
 NBasis=   236 RedAO= T  NBF=   236
 NBsUse=   236 1.00D-06 NBFU=   236
 Harris functional with IExCor=  402 diagonalized for initial guess.
 ExpMin= 4.38D-02 ExpMax= 4.56D+03 ExpMxC= 6.82D+02 IAcc=2 IRadAn=         4 AccDes= 0.00D+00
 HarFok:  IExCor= 402 AccDes= 0.00D+00 IRadAn=         4 IDoV=1
 ScaDFX=  1.000000  1.000000  1.000000  1.000000
 Initial guess orbital symmetries:
       Occupied  (A) (A) (A) (A) (A) (A) (A) (A) (A) (A) (A) (A)
                 (A) (A) (A) (A) (A) (A) (A) (A) (A) (A) (A) (A)
                 (A) (A) (A) (A) (A)
       Virtual   (A) (A) (A) (A) (A) (A) (A) (A) (A) (A) (A) (A)
                 (A) (A) (A) (A) (A) (A) (A) (A) (A) (A) (A) (A)
                 (A) (A) (A) (A) (A) (A) (A) (A) (A) (A) (A) (A)
                 (A) (A) (A) (A) (A) (A) (A) (A) (A) (A) (A) (A)
                 (A) (A) (A) (A) (A) (A) (A) (A) (A) (A) (A) (A)
                 (A) (A) (A) (A) (A) (A) (A) (A) (A) (A) (A) (A)
                 (A) (A) (A) (A) (A) (A) (A) (A) (A) (A) (A) (A)
                 (A) (A) (A) (A) (A) (A) (A) (A) (A) (A) (A) (A)
                 (A) (A) (A) (A) (A) (A) (A) (A) (A) (A) (A) (A)
                 (A) (A) (A) (A) (A) (A) (A) (A) (A) (A) (A) (A)
                 (A) (A) (A) (A) (A) (A) (A) (A) (A) (A) (A) (A)
                 (A) (A) (A) (A) (A) (A) (A) (A) (A) (A) (A) (A)
                 (A) (A) (A) (A) (A) (A) (A) (A) (A) (A) (A) (A)
                 (A) (A) (A) (A) (A) (A) (A) (A) (A) (A) (A) (A)
                 (A) (A) (A) (A) (A) (A) (A) (A) (A) (A) (A) (A)
                 (A) (A) (A) (A) (A) (A) (A) (A) (A) (A) (A) (A)
                 (A) (A) (A) (A) (A) (A) (A) (A) (A) (A) (A) (A)
                 (A) (A) (A)
 The electronic state of the initial guess is 1-A.
 Requested convergence on RMS density matrix=1.00D-08 within 128 cycles.
 Requested convergence on MAX density matrix=1.00D-06.
 Requested convergence on             energy=1.00D-06.
 No special actions if energy rises.
 SCF Done:  E(RB+HF-LYP) =  -310.966068045     A.U. after   12 cycles
             Convg  =    0.6992D-08             -V/T =  2.0049
             S**2   =   0.0000
 Range of M.O.s used for correlation:     1   236
 NBasis=   236 NAE=    29 NBE=    29 NFC=     0 NFV=     0
 NROrb=    236 NOA=    29 NOB=    29 NVA=   207 NVB=   207

 **** Warning!!: The largest alpha MO coefficient is  0.19344876D+03

 Symmetrizing basis deriv contribution to polar:
 IMax=3 JMax=2 DiffMx= 0.00D+00
 G2DrvN: will do   19 centers at a time, making    1 passes doing MaxLOS=2.
 FoFDir/FoFCou used for L=0 through L=2.
 DoAtom=TTTTTTTTTTTTTTTTTT
          Differentiating once with respect to electric field.
                with respect to dipole field.
          Differentiating once with respect to nuclear coordinates.
 Integrals replicated using symmetry in FoFDir.
 MinBra= 0 MaxBra= 2 Meth= 1.
 IRaf=       0 NMat=  57 IRICut=      57 DoRegI=T DoRafI=T ISym2E= 2 JSym2E=2.
          There are  57 degrees of freedom in the 1st order CPHF.
    54 vectors were produced by pass  0.
 AX will form  54 AO Fock derivatives at one time.
    54 vectors were produced by pass  1.
    54 vectors were produced by pass  2.
    54 vectors were produced by pass  3.
    54 vectors were produced by pass  4.
    40 vectors were produced by pass  5.
    13 vectors were produced by pass  6.
    13 vectors were produced by pass  7.
    12 vectors were produced by pass  8.
     7 vectors were produced by pass  9.
     2 vectors were produced by pass 10.
     1 vectors were produced by pass 11.
 Inv2:  IOpt= 1 Iter= 1 AM= 3.61D-11 Conv= 1.00D-12.
 Inv2:  IOpt= 1 Iter= 2 AM= 3.47D-24 Conv= 1.00D-12.
 Inverted reduced A of dimension  358 with in-core refinement.
 Isotropic polarizability for W=    0.000000       93.20 Bohr**3.
 End of Minotr Frequency-dependent properties file   721 does not exist.
 Full mass-weighted force constant matrix:
 Low frequencies ---  -25.3737   -6.3054   -4.6009   -0.0011   -0.0006    0.0003
 Low frequencies ---   17.6979   43.3032  135.7542
 ******    1 imaginary frequencies (negative Signs) ****** 
 Diagonal vibrational polarizability:
        0.9816714       3.7382037      14.5114180
 Harmonic frequencies (cm**-1), IR intensities (KM/Mole), Raman scattering
 activities (A**4/AMU), depolarization ratios for plane and unpolarized
 incident light, reduced masses (AMU), force constants (mDyne/A),
 and normal coordinates:
                     1                      2                      3
                     A                      A                      A
 Frequencies --   -25.0526                42.9307               135.7451
 Red. masses --     1.0485                 1.0454                 2.8283
 Frc consts  --     0.0004                 0.0011                 0.0307
 IR Inten    --     0.1426                 0.2643                 1.9690
 Atom AN      X      Y      Z        X      Y      Z        X      Y      Z
   1   6     0.00   0.00   0.02     0.00   0.00  -0.01     0.00   0.00   0.13
   2   6     0.00   0.00   0.01     0.00   0.00   0.01     0.00   0.00   0.04
   3   6     0.00   0.00  -0.02     0.00   0.00   0.04     0.00   0.00   0.11
   4   6     0.00   0.00  -0.04     0.00   0.00   0.03     0.00   0.00   0.11
   5   6     0.00   0.00  -0.02     0.00   0.00   0.00     0.00   0.00   0.04
   6   6     0.00   0.00   0.01     0.00   0.00  -0.02     0.00   0.00   0.13
   7   6     0.00   0.00   0.01     0.00  -0.01  -0.02     0.00   0.00  -0.23
   8   6     0.00   0.00   0.02     0.00   0.00  -0.01     0.00   0.00  -0.23
   9   1     0.00   0.00  -0.07     0.00   0.00   0.05     0.00   0.00   0.10
  10   1     0.00   0.00   0.01     0.00   0.00  -0.04     0.00   0.00   0.13
  11   1     0.00   0.00  -0.05     0.00   0.00   0.06     0.00   0.00   0.10
  12   1     0.00   0.00   0.04     0.00   0.00  -0.02     0.00   0.00   0.13
  13   1     0.00   0.01   0.05     0.01   0.17   0.51     0.06  -0.03  -0.41
  14   1     0.00   0.02  -0.01     0.01   0.37  -0.46     0.13  -0.07  -0.23
  15   1     0.01  -0.03   0.01    -0.02  -0.57  -0.15    -0.21   0.10  -0.28
  16   1     0.00   0.01  -0.53     0.00   0.00  -0.01     0.01   0.00  -0.44
  17   1    -0.03   0.49   0.34     0.01  -0.01  -0.02     0.18   0.12  -0.23
  18   1     0.03  -0.50   0.32    -0.01   0.00  -0.02    -0.18  -0.12  -0.24
                     4                      5                      6
                     A                      A                      A
 Frequencies --   285.3333               308.1607               386.1938
 Red. masses --     2.5496                 3.2039                 2.4925
 Frc consts  --     0.1223                 0.1793                 0.2190
 IR Inten    --     0.7509                 0.0036                 0.1332
 Atom AN      X      Y      Z        X      Y      Z        X      Y      Z
   1   6    -0.01   0.10   0.00     0.00   0.00   0.13     0.07   0.10   0.01
   2   6     0.00   0.08   0.00     0.00   0.00   0.22     0.00   0.14   0.00
   3   6     0.01   0.10   0.00     0.00   0.00   0.15    -0.08   0.10  -0.01
   4   6    -0.01   0.10   0.00     0.00   0.00  -0.15    -0.08  -0.10   0.01
   5   6     0.00   0.08   0.00     0.01   0.00  -0.22     0.00  -0.14   0.00
   6   6     0.01   0.10   0.00     0.00   0.00  -0.13     0.07  -0.10  -0.01
   7   6     0.01  -0.21   0.00    -0.01   0.00  -0.11     0.00  -0.13   0.00
   8   6    -0.01  -0.21   0.00     0.01   0.00   0.11     0.01   0.13   0.00
   9   1     0.00   0.10   0.01     0.00   0.00  -0.21    -0.20  -0.17   0.03
  10   1     0.01   0.10   0.00     0.00   0.00  -0.17     0.19  -0.16  -0.03
  11   1     0.01   0.10  -0.01     0.00   0.00   0.22    -0.20   0.17  -0.03
  12   1    -0.01   0.10   0.00     0.00   0.00   0.17     0.19   0.17   0.03
  13   1    -0.24  -0.32  -0.02     0.08  -0.02  -0.29    -0.27  -0.25  -0.01
  14   1     0.20  -0.33   0.02     0.19  -0.03  -0.19     0.22  -0.26   0.01
  15   1     0.06  -0.29   0.01    -0.32   0.05  -0.21     0.06  -0.23   0.00
  16   1     0.26  -0.32   0.00     0.00   0.00   0.33    -0.27   0.24   0.00
  17   1    -0.15  -0.32   0.00    -0.26  -0.07   0.18     0.15   0.24   0.00
  18   1    -0.14  -0.32   0.00     0.28   0.07   0.19     0.15   0.24   0.00
                     7                      8                      9
                     A                      A                      A
 Frequencies --   415.5539               463.6339               495.0777
 Red. masses --     2.9005                 4.7398                 2.3617
 Frc consts  --     0.2951                 0.6003                 0.3411
 IR Inten    --     0.0108                 0.0581                21.0774
 Atom AN      X      Y      Z        X      Y      Z        X      Y      Z
   1   6     0.01   0.01  -0.21     0.03   0.09   0.01     0.00   0.00  -0.07
   2   6     0.00   0.01  -0.01     0.22   0.00  -0.01     0.01   0.00   0.23
   3   6    -0.01   0.01   0.20     0.03  -0.10   0.01     0.00   0.00  -0.07
   4   6    -0.01  -0.01  -0.20    -0.03  -0.10   0.00     0.00   0.00  -0.07
   5   6     0.00  -0.01   0.01    -0.22   0.00  -0.03    -0.01   0.00   0.23
   6   6     0.00  -0.01   0.21    -0.03   0.09   0.00     0.00   0.00  -0.07
   7   6     0.00  -0.01   0.00     0.32   0.01  -0.01     0.01   0.00   0.00
   8   6     0.00   0.01   0.00    -0.32   0.01   0.00    -0.02   0.00   0.00
   9   1    -0.01  -0.01  -0.45     0.11  -0.02   0.02     0.01   0.00  -0.40
  10   1     0.01  -0.01   0.46     0.11   0.01   0.02     0.01   0.00  -0.40
  11   1    -0.02   0.01   0.44    -0.11  -0.01   0.04     0.00   0.00  -0.41
  12   1     0.01   0.01  -0.47    -0.10   0.01   0.04     0.00   0.00  -0.39
  13   1    -0.02  -0.02   0.01     0.31   0.00   0.00     0.08   0.00  -0.11
  14   1     0.00  -0.02   0.01     0.31   0.00   0.00     0.17   0.00  -0.10
  15   1     0.02  -0.02   0.01     0.33   0.01   0.00    -0.23   0.00  -0.09
  16   1    -0.02   0.01  -0.02    -0.33   0.01   0.01    -0.01   0.00  -0.10
  17   1     0.03   0.01  -0.01    -0.34   0.01   0.01     0.19   0.00  -0.10
  18   1    -0.02   0.01  -0.01    -0.29   0.01   0.01    -0.23   0.00  -0.10
                    10                     11                     12
                     A                      A                      A
 Frequencies --   658.3678               720.2065               728.8685
 Red. masses --     6.7869                 3.1023                 3.7659
 Frc consts  --     1.7332                 0.9481                 1.1787
 IR Inten    --     0.0015                 0.0089                 0.0890
 Atom AN      X      Y      Z        X      Y      Z        X      Y      Z
   1   6    -0.28   0.21   0.00    -0.04   0.00   0.16     0.16  -0.03   0.03
   2   6     0.00   0.11   0.00     0.00   0.00  -0.20    -0.03   0.00  -0.06
   3   6     0.29   0.21   0.00    -0.03   0.00   0.16     0.15   0.02   0.03
   4   6     0.29  -0.21   0.00    -0.03   0.01  -0.15     0.15  -0.02  -0.04
   5   6     0.00  -0.11   0.00     0.01   0.00   0.20    -0.02   0.00   0.05
   6   6    -0.28  -0.21   0.00    -0.03  -0.01  -0.16     0.17   0.02  -0.04
   7   6    -0.01   0.05   0.00     0.06   0.00  -0.04    -0.26  -0.01   0.00
   8   6    -0.01  -0.05   0.00     0.06   0.00   0.03    -0.26   0.01   0.01
   9   1     0.19  -0.26   0.01    -0.05   0.00  -0.37     0.24   0.03  -0.06
  10   1    -0.17  -0.27   0.00    -0.06   0.00  -0.38     0.26  -0.03  -0.06
  11   1     0.19   0.26   0.00    -0.05   0.01   0.35     0.24  -0.03   0.13
  12   1    -0.17   0.27   0.00    -0.05   0.00   0.37     0.26   0.03   0.14
  13   1     0.06   0.09   0.01    -0.02   0.01   0.08    -0.28  -0.01   0.01
  14   1    -0.07   0.09  -0.01    -0.11  -0.01   0.08    -0.30   0.00   0.01
  15   1    -0.03   0.09   0.00     0.32   0.00   0.07    -0.22   0.00   0.02
  16   1     0.06  -0.08   0.00     0.06   0.00  -0.08    -0.25   0.00  -0.03
  17   1    -0.05  -0.09   0.00     0.28   0.00  -0.07    -0.21   0.00  -0.02
  18   1    -0.05  -0.09   0.00    -0.17   0.01  -0.07    -0.35   0.00  -0.02
                    13                     14                     15
                     A                      A                      A
 Frequencies --   809.3506               836.1837               847.2015
 Red. masses --     1.3055                 5.2160                 1.2524
 Frc consts  --     0.5038                 2.1488                 0.5296
 IR Inten    --    43.1195                 0.1503                 0.0315
 Atom AN      X      Y      Z        X      Y      Z        X      Y      Z
   1   6     0.00   0.01  -0.07     0.05  -0.28  -0.01     0.00   0.00   0.07
   2   6     0.01   0.00   0.06    -0.08   0.00   0.01     0.00   0.00   0.00
   3   6     0.00  -0.01  -0.07     0.04   0.27  -0.01     0.00   0.00  -0.08
   4   6     0.00  -0.01  -0.07    -0.05   0.27  -0.01     0.00   0.00  -0.08
   5   6     0.00   0.00   0.06     0.08   0.00   0.00     0.00   0.00   0.01
   6   6     0.00   0.01  -0.07    -0.05  -0.28  -0.01     0.00   0.00   0.07
   7   6     0.00   0.00   0.02     0.17   0.00   0.00     0.00   0.00   0.00
   8   6     0.01   0.00   0.02    -0.17   0.01   0.00     0.00   0.00   0.00
   9   1     0.00  -0.01   0.44    -0.26   0.17   0.05     0.00   0.00   0.50
  10   1     0.00   0.01   0.47    -0.25  -0.17   0.06     0.00   0.00  -0.48
  11   1    -0.02   0.00   0.44     0.25   0.17   0.03     0.00   0.00   0.51
  12   1    -0.02   0.00   0.47     0.25  -0.17   0.04     0.00   0.00  -0.48
  13   1     0.06  -0.01  -0.09     0.20   0.01  -0.01     0.01   0.00   0.01
  14   1     0.13   0.01  -0.07     0.21  -0.01   0.00     0.00   0.00   0.00
  15   1    -0.20   0.00  -0.05     0.18  -0.01   0.00     0.00   0.01   0.00
  16   1     0.02   0.00  -0.10    -0.18   0.01  -0.01     0.00   0.00   0.01
  17   1     0.18   0.00  -0.06    -0.19  -0.02  -0.01     0.00   0.00   0.00
  18   1    -0.17   0.00  -0.06    -0.22  -0.01  -0.01     0.00   0.00   0.00
                    16                     17                     18
                     A                      A                      A
 Frequencies --   954.1735               977.3232               986.5838
 Red. masses --     1.2684                 1.3655                 1.4688
 Frc consts  --     0.6804                 0.7684                 0.8423
 IR Inten    --     0.0808                 0.0016                 0.2993
 Atom AN      X      Y      Z        X      Y      Z        X      Y      Z
   1   6     0.00   0.00   0.09     0.00   0.00  -0.08    -0.02   0.06  -0.01
   2   6     0.00   0.00   0.00     0.00   0.00   0.00     0.00  -0.06   0.00
   3   6     0.00   0.00   0.06     0.00   0.00   0.10     0.02   0.06   0.00
   4   6     0.00   0.00  -0.06     0.00   0.00  -0.10    -0.02   0.06   0.00
   5   6     0.00   0.00   0.00     0.00   0.00   0.00     0.00  -0.06   0.00
   6   6     0.00   0.00  -0.08     0.00   0.00   0.08     0.02   0.05   0.00
   7   6     0.00   0.00  -0.03     0.00   0.01   0.00     0.00  -0.10   0.00
   8   6     0.00   0.00   0.03     0.00   0.00   0.00     0.00  -0.11   0.00
   9   1     0.00   0.00   0.41     0.00   0.00   0.55    -0.07   0.04   0.02
  10   1     0.00   0.00   0.52     0.00   0.00  -0.43     0.09   0.02  -0.01
  11   1     0.01   0.00  -0.41     0.00   0.00  -0.55     0.09   0.02  -0.03
  12   1     0.01   0.00  -0.52     0.00   0.00   0.43    -0.08   0.02   0.03
  13   1    -0.05   0.01   0.07    -0.03  -0.01   0.00     0.46   0.11   0.02
  14   1    -0.11  -0.02   0.06     0.01  -0.01   0.01    -0.37   0.14  -0.04
  15   1     0.15   0.01   0.04     0.02  -0.01   0.00    -0.10   0.19   0.02
  16   1     0.00   0.00  -0.08     0.02   0.00   0.00    -0.52   0.10   0.00
  17   1     0.13  -0.01  -0.04     0.00   0.00   0.00     0.28   0.18   0.05
  18   1    -0.14   0.01  -0.04    -0.02  -0.01   0.00     0.26   0.18  -0.04
                    19                     20                     21
                     A                      A                      A
 Frequencies --  1021.4208              1039.6147              1059.7382
 Red. masses --     1.3766                 2.6559                 1.5350
 Frc consts  --     0.8462                 1.6912                 1.0157
 IR Inten    --     2.3261                 3.6045                 1.3777
 Atom AN      X      Y      Z        X      Y      Z        X      Y      Z
   1   6    -0.02   0.01   0.00    -0.02   0.20  -0.01     0.00  -0.01  -0.03
   2   6     0.01   0.02   0.00     0.03   0.00   0.02     0.00   0.00   0.09
   3   6     0.02  -0.07   0.00    -0.04  -0.18  -0.01     0.00   0.01  -0.03
   4   6     0.02   0.06   0.00    -0.03   0.18   0.00     0.00  -0.01   0.04
   5   6     0.00  -0.01   0.00     0.03   0.01   0.00     0.00   0.00  -0.11
   6   6    -0.03  -0.01   0.00    -0.02  -0.20   0.00     0.00   0.01   0.04
   7   6    -0.01   0.11   0.00    -0.01  -0.04  -0.02     0.00   0.00  -0.10
   8   6    -0.01  -0.10   0.00    -0.01   0.04   0.00     0.00   0.00   0.12
   9   1     0.17   0.15   0.00     0.20   0.31   0.00    -0.01  -0.02  -0.12
  10   1    -0.06   0.01   0.00     0.28  -0.37   0.00    -0.01   0.02  -0.16
  11   1     0.16  -0.15   0.02     0.20  -0.31   0.02    -0.01   0.01   0.11
  12   1    -0.05  -0.01  -0.01     0.29   0.37   0.03    -0.01  -0.01   0.13
  13   1    -0.49  -0.10  -0.02     0.12   0.04   0.04    -0.13   0.04   0.19
  14   1     0.37  -0.14   0.05    -0.21   0.04   0.01    -0.28  -0.06   0.15
  15   1     0.11  -0.20  -0.02     0.01   0.08   0.02     0.43   0.02   0.08
  16   1    -0.47   0.09   0.00     0.16  -0.03   0.00     0.01   0.00  -0.24
  17   1     0.24   0.16   0.05    -0.13  -0.07  -0.01     0.45  -0.07  -0.14
  18   1     0.23   0.17  -0.04    -0.12  -0.07   0.02    -0.46   0.06  -0.14
                    22                     23                     24
                     A                      A                      A
 Frequencies --  1063.2963              1140.1916              1207.4817
 Red. masses --     1.5323                 1.3027                 1.1280
 Frc consts  --     1.0207                 0.9978                 0.9690
 IR Inten    --     9.1730                 7.5940                 0.0055
 Atom AN      X      Y      Z        X      Y      Z        X      Y      Z
   1   6     0.00   0.01   0.03     0.08  -0.02   0.00    -0.03  -0.03   0.00
   2   6     0.00   0.00  -0.11     0.01   0.03   0.00     0.03   0.00   0.00
   3   6     0.00  -0.01   0.03    -0.07  -0.01   0.00    -0.03   0.04   0.00
   4   6     0.00   0.01   0.02     0.07  -0.02   0.00     0.03   0.04   0.00
   5   6     0.00   0.00  -0.09    -0.01   0.03   0.00    -0.03   0.00   0.00
   6   6     0.00  -0.01   0.02    -0.08  -0.02   0.00     0.03  -0.03   0.00
   7   6     0.00   0.00   0.12     0.00  -0.03   0.00    -0.01   0.00   0.00
   8   6     0.00   0.00   0.10     0.00  -0.03   0.00     0.01   0.00   0.00
   9   1     0.01   0.02  -0.09     0.44   0.19   0.00     0.42   0.26   0.00
  10   1     0.01  -0.02  -0.11    -0.45   0.18   0.00     0.43  -0.26   0.00
  11   1     0.01  -0.02  -0.12    -0.44   0.19   0.00    -0.42   0.26   0.00
  12   1     0.01   0.02  -0.13     0.45   0.18   0.00    -0.42  -0.26   0.00
  13   1     0.16  -0.04  -0.24     0.10   0.02   0.01    -0.03  -0.01   0.00
  14   1     0.34   0.08  -0.19    -0.09   0.03  -0.02    -0.02   0.01   0.00
  15   1    -0.53  -0.03  -0.10    -0.03   0.05   0.01    -0.01   0.00   0.00
  16   1     0.01   0.00  -0.20    -0.10   0.01   0.00     0.04  -0.01   0.00
  17   1     0.38  -0.06  -0.12     0.06   0.04   0.02     0.02   0.01   0.00
  18   1    -0.39   0.05  -0.11     0.06   0.05  -0.02     0.01   0.01   0.00
                    25                     26                     27
                     A                      A                      A
 Frequencies --  1221.4153              1236.8160              1324.1352
 Red. masses --     5.7453                 2.1892                 7.1380
 Frc consts  --     5.0500                 1.9731                 7.3738
 IR Inten    --     0.0348                 2.9233                 0.1606
 Atom AN      X      Y      Z        X      Y      Z        X      Y      Z
   1   6     0.18  -0.06   0.00    -0.02   0.04   0.00    -0.19  -0.17   0.00
   2   6     0.34  -0.03   0.00     0.21   0.00   0.00     0.03   0.37   0.00
   3   6     0.16   0.09   0.00    -0.01  -0.04   0.00     0.23  -0.15   0.00
   4   6    -0.16   0.08   0.00    -0.02   0.04   0.00    -0.23  -0.15   0.00
   5   6    -0.36  -0.03   0.00     0.21   0.01   0.00    -0.04   0.36   0.00
   6   6    -0.18  -0.06   0.00    -0.02  -0.05   0.00     0.19  -0.17   0.00
   7   6    -0.15   0.01   0.00    -0.08   0.00   0.00    -0.02  -0.08   0.00
   8   6     0.16   0.01   0.00    -0.07   0.00   0.00     0.02  -0.08   0.00
   9   1    -0.25   0.06   0.00    -0.39  -0.17   0.00     0.09   0.03   0.00
  10   1    -0.10  -0.13   0.00    -0.39   0.17   0.00    -0.08  -0.03   0.00
  11   1     0.27   0.05   0.00    -0.41   0.18  -0.01    -0.07   0.02   0.00
  12   1     0.12  -0.12  -0.01    -0.39  -0.17  -0.01     0.09  -0.02   0.00
  13   1    -0.31  -0.04   0.00    -0.17  -0.03  -0.01     0.23   0.05   0.05
  14   1    -0.21   0.01   0.02    -0.16   0.04   0.00    -0.20   0.12  -0.11
  15   1    -0.19  -0.02  -0.02    -0.14   0.01  -0.02    -0.06   0.27   0.06
  16   1     0.32  -0.04   0.00    -0.17   0.03   0.00    -0.24   0.03  -0.01
  17   1     0.21   0.00  -0.03    -0.14  -0.03   0.01     0.14   0.20   0.12
  18   1     0.21   0.00   0.03    -0.14  -0.02  -0.01     0.13   0.21  -0.11
                    28                     29                     30
                     A                      A                      A
 Frequencies --  1340.8749              1413.0268              1414.3969
 Red. masses --     1.3008                 1.2516                 1.2484
 Frc consts  --     1.3779                 1.4724                 1.4715
 IR Inten    --     0.3463                 0.7745                 0.5071
 Atom AN      X      Y      Z        X      Y      Z        X      Y      Z
   1   6     0.04   0.02   0.00     0.01   0.00   0.00    -0.01   0.00   0.00
   2   6     0.00   0.10   0.00     0.00   0.00   0.00    -0.02   0.00   0.00
   3   6    -0.03   0.01   0.00     0.00   0.01   0.00     0.00   0.00   0.00
   4   6    -0.03  -0.01   0.00     0.00   0.00   0.00     0.00  -0.01   0.00
   5   6     0.00  -0.10   0.00    -0.02   0.00   0.00     0.00   0.00   0.00
   6   6     0.04  -0.02   0.00    -0.01   0.00   0.00     0.01   0.00   0.00
   7   6     0.00  -0.03   0.00     0.01   0.00   0.00     0.14   0.01  -0.01
   8   6     0.00   0.03   0.00     0.14  -0.01   0.00    -0.01   0.00   0.00
   9   1     0.41   0.23   0.00     0.02   0.00   0.00     0.03   0.01   0.00
  10   1    -0.43   0.24   0.00     0.04  -0.02   0.00     0.01   0.01   0.00
  11   1     0.41  -0.23   0.00     0.04  -0.01   0.00     0.01   0.00   0.00
  12   1    -0.43  -0.24   0.00     0.01   0.00   0.00     0.03   0.02   0.00
  13   1     0.06   0.01   0.03    -0.05  -0.02   0.02    -0.47  -0.19   0.14
  14   1    -0.06   0.05  -0.05    -0.05   0.01   0.02    -0.50   0.10   0.25
  15   1    -0.02   0.10   0.02    -0.05   0.00  -0.02    -0.55   0.00  -0.25
  16   1     0.06   0.00   0.00    -0.47   0.22   0.01     0.05  -0.02   0.00
  17   1    -0.04  -0.07  -0.04    -0.53  -0.05   0.25     0.05   0.00  -0.03
  18   1    -0.04  -0.08   0.04    -0.53  -0.04  -0.26     0.05   0.00   0.03
                    31                     32                     33
                     A                      A                      A
 Frequencies --  1434.8026              1486.7828              1488.4688
 Red. masses --     2.3446                 1.0436                 1.0618
 Frc consts  --     2.8439                 1.3592                 1.3860
 IR Inten    --     0.0199                 4.7857                 4.8637
 Atom AN      X      Y      Z        X      Y      Z        X      Y      Z
   1   6     0.15  -0.02   0.00     0.00   0.00   0.00    -0.01  -0.01   0.00
   2   6    -0.01   0.12   0.00     0.00   0.00   0.00     0.00   0.01  -0.01
   3   6    -0.14  -0.02   0.00     0.00   0.00   0.00     0.01  -0.02   0.00
   4   6     0.14  -0.02   0.00     0.00   0.00   0.00     0.01   0.02   0.00
   5   6     0.01   0.12   0.00     0.00   0.00  -0.02     0.00  -0.01   0.00
   6   6    -0.15  -0.02   0.00     0.00   0.00   0.00    -0.01   0.02   0.00
   7   6     0.01  -0.06   0.00     0.00   0.00   0.01    -0.01  -0.03  -0.04
   8   6    -0.02  -0.06   0.00     0.00   0.00  -0.05     0.01   0.03  -0.01
   9   1    -0.27  -0.27   0.00     0.00   0.00  -0.01    -0.04  -0.01   0.00
  10   1     0.28  -0.28   0.00     0.00   0.00   0.01     0.05  -0.01   0.00
  11   1     0.27  -0.27   0.00     0.01   0.00   0.00    -0.06   0.02  -0.01
  12   1    -0.28  -0.28   0.00     0.00   0.00   0.00     0.04   0.01   0.00
  13   1    -0.04  -0.02   0.12    -0.02  -0.04  -0.10    -0.06   0.15   0.58
  14   1    -0.03   0.11  -0.15    -0.05   0.07  -0.04     0.33  -0.20  -0.01
  15   1    -0.04   0.29   0.05     0.05  -0.04   0.01    -0.20   0.47   0.01
  16   1     0.05  -0.07  -0.01     0.01  -0.02   0.70    -0.17   0.08   0.10
  17   1     0.04   0.21   0.13     0.31   0.38   0.07     0.09  -0.17  -0.16
  18   1     0.05   0.22  -0.12    -0.31  -0.36   0.03     0.01  -0.28   0.16
                    34                     35                     36
                     A                      A                      A
 Frequencies --  1490.1185              1502.2421              1546.7019
 Red. masses --     1.0667                 1.1245                 2.5767
 Frc consts  --     1.3955                 1.4952                 3.6319
 IR Inten    --     4.4090                19.9856                29.1540
 Atom AN      X      Y      Z        X      Y      Z        X      Y      Z
   1   6     0.01   0.02   0.00     0.03  -0.01   0.00    -0.09  -0.09   0.00
   2   6     0.01  -0.01  -0.01     0.00   0.05   0.00     0.17  -0.02   0.00
   3   6    -0.01   0.01   0.00    -0.02  -0.01   0.00    -0.10   0.11   0.00
   4   6    -0.01  -0.01   0.00     0.02  -0.01   0.00    -0.10  -0.11   0.00
   5   6     0.00   0.01   0.00     0.00   0.05   0.00     0.17   0.01   0.00
   6   6     0.01  -0.02   0.00    -0.04  -0.01   0.00    -0.09   0.09   0.00
   7   6    -0.02   0.03  -0.04    -0.01   0.02   0.00    -0.04   0.00   0.00
   8   6    -0.01  -0.03  -0.01     0.01   0.03   0.00    -0.04   0.00   0.00
   9   1     0.03   0.01   0.00    -0.04  -0.05   0.00     0.45   0.18   0.00
  10   1    -0.06   0.02   0.00     0.07  -0.07   0.00     0.40  -0.17   0.00
  11   1     0.02  -0.01   0.00     0.04  -0.05   0.00     0.45  -0.18   0.00
  12   1    -0.07  -0.02   0.00    -0.06  -0.07   0.00     0.40   0.17   0.00
  13   1     0.29   0.25   0.29     0.28   0.08  -0.15    -0.05   0.00   0.02
  14   1     0.10  -0.43   0.42    -0.17  -0.17   0.30    -0.02  -0.01   0.00
  15   1    -0.23  -0.22  -0.15    -0.05  -0.43  -0.11    -0.04   0.01   0.00
  16   1     0.20  -0.10   0.06    -0.32   0.14   0.01    -0.04   0.00   0.00
  17   1    -0.03   0.29   0.19     0.11  -0.34  -0.26    -0.03   0.00   0.00
  18   1    -0.09   0.23  -0.17     0.10  -0.35   0.24    -0.03   0.00   0.00
                    37                     38                     39
                     A                      A                      A
 Frequencies --  1612.9548              1656.1444              3019.6805
 Red. masses --     5.2408                 5.9032                 1.0396
 Frc consts  --     8.0332                 9.5396                 5.5853
 IR Inten    --     0.6800                 0.0050                38.4185
 Atom AN      X      Y      Z        X      Y      Z        X      Y      Z
   1   6     0.10   0.20   0.00     0.28   0.08   0.00     0.00   0.00   0.00
   2   6    -0.02  -0.32   0.00    -0.21  -0.01   0.00     0.00   0.00   0.00
   3   6    -0.08   0.18   0.00     0.29  -0.08   0.00     0.00   0.00   0.00
   4   6    -0.08  -0.18   0.00    -0.29  -0.08   0.00     0.00   0.00   0.00
   5   6    -0.02   0.32   0.00     0.21  -0.01   0.00     0.00   0.00   0.00
   6   6     0.10  -0.20   0.00    -0.28   0.08   0.00     0.00   0.00   0.00
   7   6     0.01   0.02   0.00     0.03   0.00   0.00    -0.05  -0.01   0.02
   8   6     0.01  -0.02   0.00    -0.03   0.00   0.00     0.00   0.00   0.00
   9   1     0.24  -0.01   0.00     0.29   0.25   0.00     0.00   0.00   0.00
  10   1    -0.31   0.01   0.00     0.27  -0.23   0.00     0.00   0.00   0.00
  11   1     0.24   0.01   0.00    -0.29   0.25   0.00    -0.01  -0.01   0.00
  12   1    -0.31  -0.02   0.00    -0.27  -0.23   0.00    -0.01   0.01   0.00
  13   1    -0.24  -0.05   0.08     0.00  -0.02  -0.02     0.14  -0.38   0.13
  14   1     0.19   0.04  -0.13     0.03   0.02  -0.03     0.16   0.33   0.30
  15   1     0.05   0.16   0.05     0.06   0.01   0.02     0.25   0.15  -0.71
  16   1    -0.26   0.08   0.01     0.01  -0.01   0.00     0.01   0.02   0.00
  17   1     0.13  -0.11  -0.11    -0.05   0.02   0.03     0.01  -0.01   0.02
  18   1     0.12  -0.12   0.10    -0.05   0.02  -0.03     0.01  -0.01  -0.02
                    40                     41                     42
                     A                      A                      A
 Frequencies --  3021.7812              3069.3268              3071.0263
 Red. masses --     1.0370                 1.1004                 1.0962
 Frc consts  --     5.5789                 6.1077                 6.0914
 IR Inten    --    32.9688                16.5460                21.6011
 Atom AN      X      Y      Z        X      Y      Z        X      Y      Z
   1   6     0.00   0.00   0.00     0.00   0.00   0.00     0.00   0.00   0.00
   2   6     0.00   0.00   0.00     0.00   0.00   0.00     0.00   0.00   0.00
   3   6     0.00   0.00   0.00     0.00   0.00   0.00     0.00   0.00   0.00
   4   6     0.00   0.00   0.00     0.00   0.00   0.00     0.00   0.00   0.00
   5   6     0.00   0.00   0.00     0.00   0.00   0.00     0.00   0.00   0.00
   6   6     0.00   0.00   0.00     0.00   0.00   0.00     0.00   0.00   0.00
   7   6     0.00   0.00   0.00     0.00   0.00   0.00     0.02   0.00   0.09
   8   6    -0.05   0.02   0.00     0.00   0.00   0.09     0.00   0.00   0.00
   9   1    -0.01   0.01   0.00     0.00   0.00   0.00     0.00   0.00   0.00
  10   1    -0.01  -0.01   0.00     0.00   0.00   0.00     0.00   0.00   0.00
  11   1     0.00   0.00   0.00     0.00   0.00   0.00     0.01   0.01   0.00
  12   1     0.00   0.00   0.00     0.00   0.00   0.00     0.01  -0.01   0.00
  13   1    -0.01   0.02  -0.01     0.01  -0.02   0.00    -0.13   0.33  -0.08
  14   1    -0.01  -0.02  -0.01     0.01   0.03   0.02    -0.25  -0.50  -0.41
  15   1    -0.01  -0.01   0.03    -0.01  -0.01   0.03     0.21   0.12  -0.56
  16   1     0.15   0.41   0.01    -0.01  -0.02   0.02     0.00   0.00   0.00
  17   1     0.21  -0.30   0.50    -0.25   0.36  -0.56    -0.01   0.02  -0.03
  18   1     0.22  -0.29  -0.53     0.25  -0.33  -0.56     0.01  -0.02  -0.03
                    43                     44                     45
                     A                      A                      A
 Frequencies --  3098.6075              3099.2563              3145.6820
 Red. masses --     1.1015                 1.1002                 1.0866
 Frc consts  --     6.2310                 6.2264                 6.3351
 IR Inten    --    16.8094                19.3459                12.2140
 Atom AN      X      Y      Z        X      Y      Z        X      Y      Z
   1   6     0.00   0.00   0.00     0.00   0.00   0.00     0.00   0.00   0.00
   2   6     0.00   0.00   0.00     0.00   0.00   0.00     0.00   0.00   0.00
   3   6     0.00   0.00   0.00     0.00   0.00   0.00     0.03   0.05   0.00
   4   6     0.00   0.00   0.00     0.00   0.00   0.00     0.03  -0.05   0.00
   5   6     0.00   0.00   0.00     0.00   0.00   0.00     0.00   0.00   0.00
   6   6     0.00   0.00   0.00     0.00   0.00   0.00     0.00   0.00   0.00
   7   6    -0.01   0.09   0.00     0.00   0.00   0.00     0.00   0.00   0.00
   8   6     0.00   0.00   0.00    -0.01  -0.09   0.00     0.00   0.00   0.00
   9   1     0.00  -0.01   0.00     0.01  -0.01   0.00    -0.35   0.63   0.00
  10   1     0.00  -0.01   0.00    -0.02  -0.04   0.00    -0.01  -0.02   0.00
  11   1     0.01   0.02   0.00     0.00   0.00   0.00    -0.33  -0.60   0.00
  12   1    -0.02   0.03   0.00     0.00   0.01   0.00    -0.01   0.02   0.00
  13   1     0.30  -0.74   0.24    -0.01   0.02  -0.01     0.00  -0.01   0.00
  14   1    -0.19  -0.36  -0.33     0.01   0.01   0.01    -0.01  -0.01  -0.01
  15   1    -0.04   0.00   0.11     0.00   0.00   0.00     0.00   0.00   0.00
  16   1     0.01   0.02   0.00     0.32   0.84   0.02     0.00   0.01   0.00
  17   1     0.00   0.00  -0.01    -0.11   0.14  -0.26     0.00   0.00  -0.01
  18   1     0.00   0.00   0.01    -0.10   0.11   0.24     0.00   0.00   0.01
                    46                     47                     48
                     A                      A                      A
 Frequencies --  3148.9815              3162.9631              3167.4458
 Red. masses --     1.0869                 1.0940                 1.0946
 Frc consts  --     6.3498                 6.4485                 6.4700
 IR Inten    --    12.1615                41.4129                 5.3400
 Atom AN      X      Y      Z        X      Y      Z        X      Y      Z
   1   6    -0.03   0.05   0.00     0.01  -0.02   0.00     0.03  -0.05   0.00
   2   6     0.00   0.00   0.00     0.00   0.00   0.00     0.00   0.00   0.00
   3   6     0.00   0.00   0.00    -0.03  -0.05   0.00     0.01   0.02   0.00
   4   6     0.00   0.00   0.00     0.03  -0.05   0.00    -0.01   0.02   0.00
   5   6     0.00   0.00   0.00     0.00   0.00   0.00     0.00   0.00   0.00
   6   6    -0.03  -0.05   0.00    -0.01  -0.02   0.00    -0.03  -0.05   0.00
   7   6     0.00   0.00   0.00     0.00   0.00   0.00     0.00   0.00   0.00
   8   6     0.00   0.00   0.00     0.00   0.00   0.00     0.00   0.00   0.00
   9   1    -0.01   0.02   0.00    -0.30   0.54   0.00     0.15  -0.26   0.00
  10   1     0.34   0.61   0.00     0.15   0.27   0.00     0.31   0.56   0.00
  11   1    -0.01  -0.02   0.00     0.32   0.57   0.00    -0.15  -0.27   0.00
  12   1     0.35  -0.62   0.00    -0.15   0.26   0.00    -0.31   0.55   0.00
  13   1     0.01  -0.03   0.01     0.00   0.01   0.00    -0.01   0.02  -0.01
  14   1     0.00  -0.01  -0.01     0.01   0.01   0.01     0.00   0.00   0.00
  15   1     0.00   0.00   0.00     0.00   0.00   0.00     0.00   0.00   0.00
  16   1     0.02   0.03   0.00     0.00   0.01   0.00     0.01   0.02   0.00
  17   1     0.00   0.00  -0.01     0.00   0.00  -0.01     0.00   0.00   0.00
  18   1     0.00   0.00   0.01     0.00   0.00   0.01     0.00   0.00   0.00

 -------------------
 - Thermochemistry -
 -------------------
 Temperature   298.150 Kelvin.  Pressure   1.00000 Atm.
 Atom  1 has atomic number  6 and mass  12.00000
 Atom  2 has atomic number  6 and mass  12.00000
 Atom  3 has atomic number  6 and mass  12.00000
 Atom  4 has atomic number  6 and mass  12.00000
 Atom  5 has atomic number  6 and mass  12.00000
 Atom  6 has atomic number  6 and mass  12.00000
 Atom  7 has atomic number  6 and mass  12.00000
 Atom  8 has atomic number  6 and mass  12.00000
 Atom  9 has atomic number  1 and mass   1.00783
 Atom 10 has atomic number  1 and mass   1.00783
 Atom 11 has atomic number  1 and mass   1.00783
 Atom 12 has atomic number  1 and mass   1.00783
 Atom 13 has atomic number  1 and mass   1.00783
 Atom 14 has atomic number  1 and mass   1.00783
 Atom 15 has atomic number  1 and mass   1.00783
 Atom 16 has atomic number  1 and mass   1.00783
 Atom 17 has atomic number  1 and mass   1.00783
 Atom 18 has atomic number  1 and mass   1.00783
 Molecular mass:   106.07825 amu.
 Principal axes and moments of inertia in atomic units:
                           1         2         3
     EIGENVALUES --   333.796131264.426981575.83739
           X            1.00000  -0.00005  -0.00024
           Y            0.00005   1.00000   0.00000
           Z            0.00024   0.00000   1.00000
 This molecule is an asymmetric top.
 Rotational symmetry number  1.
 Rotational temperatures (Kelvin)      0.25948     0.06850     0.05496
 Rotational constants (GHZ):           5.40672     1.42732     1.14526
    1 imaginary frequencies ignored.
 Zero-point vibrational energy     405272.5 (Joules/Mol)
                                   96.86244 (Kcal/Mol)
 Warning -- explicit consideration of   8 degrees of freedom as
           vibrations may cause significant error
 Vibrational temperatures:     61.77   195.31   410.53   443.37   555.65
          (Kelvin)            597.89   667.06   712.31   947.24  1036.22
                             1048.68  1164.47  1203.08  1218.93  1372.84
                             1406.15  1419.47  1469.59  1495.77  1524.73
                             1529.84  1640.48  1737.29  1757.34  1779.50
                             1905.13  1929.22  2033.03  2035.00  2064.36
                             2139.15  2141.57  2143.95  2161.39  2225.36
                             2320.68  2382.82  4344.64  4347.66  4416.07
                             4418.52  4458.20  4459.13  4525.93  4530.68
                             4550.79  4557.24
 
 Zero-point correction=                           0.154360 (Hartree/Particle)
 Thermal correction to Energy=                    0.161589
 Thermal correction to Enthalpy=                  0.162533
 Thermal correction to Gibbs Free Energy=         0.122377
 Sum of electronic and zero-point Energies=           -310.811708
 Sum of electronic and thermal Energies=              -310.804479
 Sum of electronic and thermal Enthalpies=            -310.803535
 Sum of electronic and thermal Free Energies=         -310.843691
 
                     E (Thermal)             CV                S
                      KCal/Mol        Cal/Mol-Kelvin    Cal/Mol-Kelvin
 Total                  101.398             27.421             84.514
 Electronic               0.000              0.000              0.000
 Translational            0.889              2.981             39.894
 Rotational               0.889              2.981             27.988
 Vibrational             99.621             21.459             16.632
 Vibration  1             0.595              1.980              5.119
 Vibration  2             0.614              1.918              2.863
 Vibration  3             0.683              1.701              1.501
 Vibration  4             0.698              1.658              1.372
 Vibration  5             0.755              1.500              1.015
 Vibration  6             0.779              1.436              0.907
 Vibration  7             0.821              1.331              0.756
 Vibration  8             0.851              1.261              0.671
                       Q            Log10(Q)             Ln(Q)
 Total Bot       0.513454D-56        -56.289499       -129.611361
 Total V=0       0.514140D+15         14.711082         33.873518
 Vib (Bot)       0.409559D-69        -69.387683       -159.771045
 Vib (Bot)  1    0.481834D+01          0.682897          1.572429
 Vib (Bot)  2    0.149962D+01          0.175980          0.405210
 Vib (Bot)  3    0.671905D+00         -0.172692         -0.397639
 Vib (Bot)  4    0.614271D+00         -0.211640         -0.487319
 Vib (Bot)  5    0.466136D+00         -0.331488         -0.763279
 Vib (Bot)  6    0.423974D+00         -0.372660         -0.858082
 Vib (Bot)  7    0.365754D+00         -0.436811         -1.005794
 Vib (Bot)  8    0.333422D+00         -0.477006         -1.098347
 Vib (V=0)       0.410107D+02          1.612897          3.713834
 Vib (V=0)  1    0.534421D+01          0.727883          1.676014
 Vib (V=0)  2    0.208078D+01          0.318225          0.732741
 Vib (V=0)  3    0.133753D+01          0.126303          0.290824
 Vib (V=0)  4    0.129204D+01          0.111276          0.256223
 Vib (V=0)  5    0.118358D+01          0.073198          0.168544
 Vib (V=0)  6    0.115556D+01          0.062791          0.144582
 Vib (V=0)  7    0.111950D+01          0.049023          0.112879
 Vib (V=0)  8    0.110097D+01          0.041777          0.096196
 Electronic      0.100000D+01          0.000000          0.000000
 Translational   0.429432D+08          7.632895         17.575390
 Rotational      0.291937D+06          5.465290         12.584294
 ***** Axes restored to original set *****
 -------------------------------------------------------------------
 Center     Atomic                   Forces (Hartrees/Bohr)
 Number     Number              X              Y              Z
 -------------------------------------------------------------------
    1          6          -0.000067606   -0.000014527    0.000000170
    2          6           0.000068379   -0.000005230    0.000000639
    3          6          -0.000001208    0.000016644   -0.000000061
    4          6           0.000000979    0.000006138   -0.000001254
    5          6          -0.000002675    0.000000856    0.000001730
    6          6           0.000001509   -0.000004303   -0.000000782
    7          6          -0.000000812   -0.000000473    0.000000186
    8          6           0.000002918    0.000000979   -0.000001745
    9          1          -0.000000219    0.000000505   -0.000000006
   10          1           0.000000173    0.000000644   -0.000000020
   11          1          -0.000000010    0.000000515    0.000000021
   12          1           0.000000104    0.000000456    0.000000084
   13          1           0.000000689   -0.000000386    0.000000187
   14          1           0.000000268    0.000000340   -0.000000164
   15          1          -0.000000902    0.000000246    0.000000344
   16          1          -0.000000470    0.000003521    0.000000331
   17          1           0.000000760   -0.000003086    0.000003357
   18          1          -0.000001877   -0.000002840   -0.000003019
 -------------------------------------------------------------------
 Cartesian Forces:  Max     0.000068379 RMS     0.000013545
 ------------------------------------------------------------------------
           Internal Coordinate Forces (Hartree/Bohr or radian)
 Cent Atom N1     Length/X     N2     Alpha/Y      N3      Beta/Z       J
 ------------------------------------------------------------------------
   1  C 
   2  C     1   0.000000(   1)
   3  C     2  -0.000001(   2)  1   0.000000(  18)
   4  C     3   0.000002(   3)  2   0.000003(  19)  1   0.000007(  34)  0
   5  C     4   0.000000(   4)  3   0.000004(  20)  2   0.000007(  35)  0
   6  C     5  -0.000001(   5)  4   0.000004(  21)  3  -0.000009(  36)  0
   7  C     2   0.000001(   6)  3   0.000000(  22)  4  -0.000002(  37)  0
   8  C     5   0.000002(   7)  4   0.000001(  23)  3   0.000016(  38)  0
   9  H     4   0.000000(   8)  3   0.000000(  24)  2  -0.000001(  39)  0
  10  H     6   0.000000(   9)  5   0.000000(  25)  4  -0.000001(  40)  0
  11  H     3   0.000000(  10)  2   0.000000(  26)  1  -0.000001(  41)  0
  12  H     1   0.000000(  11)  2   0.000000(  27)  3   0.000001(  42)  0
  13  H     7  -0.000001(  12)  2  -0.000001(  28)  3   0.000001(  43)  0
  14  H     7   0.000000(  13)  2   0.000000(  29)  3   0.000000(  44)  0
  15  H     7   0.000001(  14)  2   0.000002(  30)  3   0.000000(  45)  0
  16  H     8   0.000000(  15)  5  -0.000001(  31)  4   0.000024(  46)  0
  17  H     8  -0.000001(  16)  5  -0.000001(  32) 16   0.000008(  47)  0
  18  H     8   0.000001(  17)  5  -0.000001(  33) 16   0.000009(  48)  0
 ------------------------------------------------------------------------
 Internal  Forces:  Max     0.000023896 RMS     0.000005041

 GradGradGradGradGradGradGradGradGradGradGradGradGradGradGradGradGradGrad
 Berny optimization.
 Search for a local minimum.
 Step number   1 out of a maximum of   2
 All quantities printed in internal units (Hartrees-Bohrs-Radians)
 Second derivative matrix not updated -- analytic derivatives used.
     Eigenvalues ---   -0.00031   0.00028   0.02784   0.03451   0.05287
     Eigenvalues ---    0.05983   0.07002   0.07726   0.08840   0.11647
     Eigenvalues ---    0.11923   0.12045   0.14416   0.15861   0.18510
     Eigenvalues ---    0.19525   0.21068   0.22227   0.22306   0.22765
     Eigenvalues ---    0.23156   0.26281   0.27399   0.28789   0.30360
     Eigenvalues ---    0.30882   0.31729   0.32809   0.33900   0.34187
     Eigenvalues ---    0.34300   0.34627   0.34717   0.34777   0.34936
     Eigenvalues ---    0.35115   0.35303   0.35596   0.35928   0.41656
     Eigenvalues ---    0.43928   0.48915   0.49815   0.51561   0.65090
     Eigenvalues ---    1.61098   2.77899  23.80543
 Eigenvalue   1 out of range, new value =    0.000309 Eigenvector:
                           1
           cc2          0.00081
           cc3         -0.00087
           ccc3         0.00026
           cc4          0.00072
           ccc4        -0.00014
           dih4        -0.00551
           cc5         -0.00086
           ccc5        -0.00003
           dih5        -0.00566
           cc6          0.00082
           ccc6         0.00021
           dih6         0.01623
           cc7          0.00002
           ccc7         0.00044
           dih7         0.00892
           cc8         -0.00042
           ccc8         0.00080
           dih8         0.08101
           hc9         -0.00010
           hcc9         0.00018
           dih9        -0.01273
           hc10         0.00012
           hcc10       -0.00012
           dih10       -0.02312
           hc11        -0.00001
           hcc11        0.00005
           dih11       -0.01793
           hc12         0.00006
           hcc12       -0.00010
           dih12        0.01802
           hc13         0.00014
           hcc13       -0.00011
           dih13        0.02805
           hc14        -0.00023
           hcc14       -0.00043
           dih14        0.02812
           hc15         0.00010
           hcc15        0.00039
           dih15        0.02847
           hc16         0.00053
           hcc16        0.00030
           dih16        0.99381
           hc17        -0.00732
           hcc17        0.01114
           dih17        0.02500
           hc18         0.00736
           hcc18       -0.01057
           dih18        0.02588
 Angle between quadratic step and forces=  43.27 degrees.
 Linear search not attempted -- first point.
 Variable       Old X    -DE/DX   Delta X   Delta X   Delta X     New X
                                 (Linear)    (Quad)   (Total)
   cc2        2.63799   0.00000   0.00000   0.00007   0.00007   2.63806
   cc3        2.64682   0.00000   0.00000  -0.00007  -0.00007   2.64675
   ccc3       2.05282   0.00000   0.00000   0.00002   0.00002   2.05284
   cc4        2.62834   0.00000   0.00000   0.00006   0.00006   2.62840
   ccc4       2.11525   0.00000   0.00000  -0.00001  -0.00001   2.11524
   dih4       0.00430   0.00001   0.00000  -0.00043  -0.00043   0.00386
   cc5        2.64682   0.00000   0.00000  -0.00007  -0.00007   2.64675
   ccc5       2.11500   0.00000   0.00000   0.00000   0.00000   2.11500
   dih5      -0.00178   0.00001   0.00000  -0.00043  -0.00043  -0.00222
   cc6        2.63795   0.00000   0.00000   0.00006   0.00006   2.63802
   ccc6       2.05285   0.00000   0.00000   0.00002   0.00002   2.05287
   dih6      -0.00096  -0.00001   0.00000   0.00127   0.00127   0.00031
   cc7        2.85354   0.00000   0.00000   0.00000   0.00000   2.85355
   ccc7       2.11112   0.00000   0.00000   0.00004   0.00004   2.11116
   dih7       3.16264   0.00000   0.00000   0.00070   0.00070   3.16333
   cc8        2.85386   0.00000   0.00000  -0.00003  -0.00003   2.85384
   ccc8       2.10968   0.00000   0.00000   0.00007   0.00007   2.10974
   dih8       3.14515   0.00002   0.00000   0.00680   0.00680   3.15196
   hc9        2.05230   0.00000   0.00000  -0.00001  -0.00001   2.05229
   hcc9       2.08316   0.00000   0.00000   0.00001   0.00001   2.08317
   dih9       3.14318   0.00000   0.00000  -0.00103  -0.00103   3.14215
   hc10       2.05149   0.00000   0.00000   0.00001   0.00001   2.05150
  hcc10       2.08509   0.00000   0.00000  -0.00001  -0.00001   2.08508
  dih10       3.14588   0.00000   0.00000  -0.00185  -0.00185   3.14403
   hc11       2.05212   0.00000   0.00000   0.00000   0.00000   2.05212
  hcc11       2.08456   0.00000   0.00000   0.00000   0.00000   2.08457
  dih11       3.14748   0.00000   0.00000  -0.00145  -0.00145   3.14603
   hc12       2.05165   0.00000   0.00000   0.00000   0.00000   2.05165
  hcc12       2.08545   0.00000   0.00000  -0.00001  -0.00001   2.08544
  dih12       3.13542   0.00000   0.00000   0.00146   0.00146   3.13688
   hc13       2.06403   0.00000   0.00000   0.00001   0.00001   2.06404
  hcc13       1.94357   0.00000   0.00000  -0.00002  -0.00002   1.94355
  dih13       3.44866   0.00000   0.00000   0.00208   0.00208   3.45074
   hc14       2.06620   0.00000   0.00000  -0.00002  -0.00002   2.06618
  hcc14       1.94467   0.00000   0.00000  -0.00004  -0.00004   1.94463
  dih14      -0.72932   0.00000   0.00000   0.00207   0.00207  -0.72725
   hc15       2.07034   0.00000   0.00000   0.00001   0.00001   2.07035
  hcc15       1.93982   0.00000   0.00000   0.00005   0.00005   1.93986
  dih15       1.35729   0.00000   0.00000   0.00210   0.00210   1.35939
   hc16       2.06344   0.00000   0.00000   0.00004   0.00004   2.06348
  hcc16       1.94222   0.00000   0.00000   0.00002   0.00002   1.94224
  dih16       3.16078   0.00002   0.00000   0.08165   0.08165   3.24243
   hc17       2.06833   0.00000   0.00000  -0.00061  -0.00061   2.06771
  hcc17       1.94280   0.00000   0.00000   0.00096   0.00096   1.94376
  dih17       2.09883   0.00001   0.00000   0.00219   0.00219   2.10102
   hc18       2.06860   0.00000   0.00000   0.00061   0.00061   2.06922
  hcc18       1.94276   0.00000   0.00000  -0.00092  -0.00092   1.94184
  dih18       4.18510   0.00001   0.00000   0.00226   0.00226   4.18736
         Item               Value     Threshold  Converged?
 Maximum Force            0.000024     0.000450     YES
 RMS     Force            0.000005     0.000300     YES
 Maximum Displacement     0.081653     0.001800     NO 
 RMS     Displacement     0.011859     0.001200     NO 
 Predicted change in Energy=-3.128738D-06
 GradGradGradGradGradGradGradGradGradGradGradGradGradGradGradGradGradGrad


 Test job not archived.
 1\1\GINC-PARIS19\Freq\RB3LYP\6-311+G(d,p)\C8H10\CHAQUIN\17-Apr-2012\1\
 \# B3LYP 6-311+G** GEOM=CHECKPOINT FREQ POP=NONE TEST\\*** Vibrations 
 1,4-xylene **** 0 1\\0,1\C\C,1,cc2\C,2,cc3,1,ccc3\C,3,cc4,2,ccc4,1,dih
 4,0\C,4,cc5,3,ccc5,2,dih5,0\C,5,cc6,4,ccc6,3,dih6,0\C,2,cc7,3,ccc7,4,d
 ih7,0\C,5,cc8,4,ccc8,3,dih8,0\H,4,hc9,3,hcc9,2,dih9,0\H,6,hc10,5,hcc10
 ,4,dih10,0\H,3,hc11,2,hcc11,1,dih11,0\H,1,hc12,2,hcc12,3,dih12,0\H,7,h
 c13,2,hcc13,3,dih13,0\H,7,hc14,2,hcc14,3,dih14,0\H,7,hc15,2,hcc15,3,di
 h15,0\H,8,hc16,5,hcc16,4,dih16,0\H,8,hc17,5,hcc17,16,dih17,0\H,8,hc18,
 5,hcc18,16,dih18,0\\cc2=1.39596647\cc3=1.40063603\ccc3=117.61793797\cc
 4=1.39085955\ccc4=121.19487503\dih4=0.24625095\cc5=1.40063792\ccc5=121
 .18047417\dih5=-0.1022448\cc6=1.39594513\ccc6=117.61972652\dih6=-0.054
 94362\cc7=1.51002879\ccc7=120.95824061\dih7=181.20566429\cc8=1.5101988
 3\ccc8=120.87552021\dih8=180.20410324\hc9=1.08603127\hcc9=119.35618465
 \dih9=180.09104142\hc10=1.08560059\hcc10=119.46665661\dih10=180.245908
 81\hc11=1.08593713\hcc11=119.43653402\dih11=180.33730062\hc12=1.085685
 92\hcc12=119.48768194\dih12=179.64648961\hc13=1.09223689\hcc13=111.358
 16429\dih13=197.59367652\hc14=1.09338513\hcc14=111.42150159\dih14=-41.
 78719561\hc15=1.09557524\hcc15=111.14332259\dih15=77.76703661\hc16=1.0
 9192591\hcc16=111.28111165\dih16=181.09930774\hc17=1.09451095\hcc17=11
 1.31426697\dih17=120.25410023\hc18=1.09465861\hcc18=111.31217476\dih18
 =239.78832854\\Version=AM64L-G03RevC.02\State=1-A\HF=-310.966068\RMSD=
 6.992e-09\RMSF=1.355e-05\Dipole=0.0150681,0.0106116,0.025305\DipoleDer
 iv=0.0050898,0.0018422,0.0731051,0.0069353,-0.1342952,-0.0028974,0.149
 066,-0.0063091,-0.0322698,0.2132695,-0.0163382,-0.1993244,-0.0677967,-
 0.0875678,0.0373058,-0.1956819,0.0103728,0.0285375,-0.1256588,0.006499
 6,0.1047744,0.0095867,-0.1360992,0.0001312,0.0170769,0.0014995,0.08747
 61,-0.0045721,-0.0026458,0.0781537,-0.0011597,-0.1345473,-0.0069486,0.
 1646986,-0.0035432,-0.025787,0.2439919,-0.000137,-0.1873898,0.0009752,
 -0.0876427,0.0020947,-0.1750396,-0.0001523,-0.0017749,-0.1187917,0.001
 852,0.0856313,0.0036803,-0.1353668,0.0002455,0.0089056,0.0039253,0.085
 7827,0.0531173,0.0019353,0.0479797,0.08469,0.1328379,-0.0533096,0.0953
 331,-0.001796,0.0633178,-0.0183488,-0.0000801,0.0765606,0.0060488,0.13
 26941,-0.0031945,-0.0069185,0.0003326,0.1318362,-0.0930988,-0.0001198,
 -0.0759403,-0.0007251,0.1256448,0.0027445,-0.0733986,0.0006568,0.03040
 84,0.0626349,-0.0006813,0.0155708,-0.002907,0.1290661,-0.0005499,0.009
 5102,-0.0001519,-0.1287928,0.0645482,-0.0013315,0.011137,-0.0021699,0.
 1259146,0.0050304,0.0072312,0.001083,-0.1281616,-0.0967094,-0.0020693,
 -0.0746368,-0.0057014,0.1282693,-0.0006219,-0.0694737,0.0009741,0.0312
 622,-0.0847495,-0.0324118,-0.0187331,-0.0643348,0.0596661,-0.0177595,-
 0.1195698,-0.043029,-0.0179027,0.0067238,0.0330457,-0.009664,-0.029056
 4,0.0033025,0.118086,0.0505037,0.0880661,-0.0697503,-0.0260486,0.00936
 08,0.0675583,0.0645024,-0.0922581,-0.0814571,0.0749266,-0.0511384,0.02
 71709,0.029589,0.0017879,-0.0783536,-0.0011807,0.0746063,0.004635,0.03
 54765,0.0036213,-0.1424688,-0.0562867,-0.0669803,0.0398627,-0.1239817,
 -0.0487701,-0.0175823,0.0098176,-0.0590349,0.0288132,-0.0547001,0.0664
 718,0.0437083,0.1225947,-0.0554544,0.0140476,0.0175359,0.0546231,0.032
 3027\Polar=116.3806468,-0.3855735,59.8838757,-11.8310973,0.2474526,103
 .3308196\PG=C01 [X(C8H10)]\NImag=1\\0.71377395,0.00236298,0.13431384,0
 .02548972,0.00132481,0.67160742,-0.12582746,-0.00067699,0.03192451,0.6
 3714642,0.00021723,-0.06729698,-0.00034058,-0.00284653,0.17118588,-0.0
 3609535,-0.00122755,-0.31794062,0.00462737,0.00187990,0.65637993,0.029
 32047,0.00090328,-0.07631129,-0.26495526,0.00033064,-0.04334271,0.6595
 1038,0.00050712,0.00903457,-0.00077246,0.00072885,-0.06845686,0.001146
 33,-0.00000635,0.13390802,-0.03089139,-0.00011426,-0.02726909,-0.10985
 518,-0.00003065,-0.16681723,-0.01171443,-0.00266858,0.72514508,-0.0168
 3638,-0.00036691,0.02713987,-0.05808807,-0.00000515,-0.02083734,-0.282
 79797,-0.00053363,0.12634357,0.72070480,-0.00009501,-0.00568226,0.0002
 6323,-0.00001229,0.00722731,-0.00049963,-0.00052411,-0.06001032,0.0005
 4778,0.00066277,0.13368503,0.02777760,0.00063810,-0.05227466,0.0281770
 3,0.00066359,0.06539006,0.06137051,0.00000602,-0.18441113,0.01987359,-
 0.00168664,0.66387653,-0.05749231,-0.00052909,0.02596723,-0.01669245,-
 0.00000310,-0.03330116,0.03550565,0.00031304,0.02842286,-0.12482396,-0
 .00007917,0.02912148,0.64918203,-0.00026810,0.00701965,0.00023653,0.00
 024708,-0.00672034,-0.00017873,-0.00030709,0.00717846,0.00013249,0.000
 15668,-0.06850058,0.00038641,0.00082517,0.17050628,-0.02244078,-0.0006
 4064,0.06549478,-0.03537078,0.00008976,-0.05330287,0.07770958,0.000793
 99,-0.02853322,-0.03673138,0.00051166,-0.30645497,0.01125301,-0.000492
 55,0.64368882,-0.27448421,-0.00021037,0.05663488,0.03728656,-0.0006755
 9,0.07616631,-0.06724627,-0.00073336,0.00097808,0.02872061,0.00018858,
 -0.07663299,-0.27556613,-0.00028736,-0.04563207,0.65943525,-0.00068065
 ,-0.06214277,0.00018164,0.00043649,0.00707088,0.00022132,-0.00027572,-
 0.00580722,-0.00003703,0.00005174,0.00894783,-0.00018648,-0.00054136,-
 0.06666986,-0.00019183,0.00181307,0.13421379,0.12120342,0.00041528,-0.
 18129327,0.02745588,-0.00030581,-0.02960282,0.00159269,0.00003769,-0.0
 0196266,-0.03120420,0.00003108,-0.02668340,-0.11433380,-0.00035788,-0.
 16862864,-0.00249872,0.00030223,0.72599254,-0.00045628,-0.00036190,0.0
 0577806,-0.17599520,0.00215718,0.05489194,-0.03113452,0.00069342,0.016
 69241,-0.00042864,0.00016651,-0.00449821,-0.00048057,-0.00016965,0.000
 92611,0.00104557,-0.00083622,-0.00222309,0.50779095,-0.00053422,0.0046
 8927,0.00026984,-0.00109413,-0.06859059,0.00062123,-0.00034973,0.00325
 921,0.00032372,-0.00082746,0.00549048,0.00007068,0.00024937,-0.0008672
 7,-0.00032979,-0.00030589,0.00734843,0.00070208,0.00699671,0.52935266,
 0.03100445,-0.00100880,-0.01801179,0.05104886,-0.00113485,-0.12036517,
 -0.00869123,0.00078330,0.01179067,-0.00471964,0.00102884,-0.00091043,0
 .00031819,0.00009253,-0.00150111,-0.00197542,-0.00064253,-0.00342558,0
 .04504792,-0.00472054,0.54409900,-0.00089299,-0.00002059,-0.00230693,-
 0.00223788,-0.00010025,-0.00081307,0.00370661,-0.00004907,-0.00320728,
 -0.00082537,-0.00004376,0.00776548,-0.17533590,-0.00007223,0.04969192,
 -0.02864310,0.00000178,0.01563179,0.00022205,0.00005254,0.00004504,0.4
 9563060,-0.00004718,0.00784592,-0.00006798,-0.00007632,-0.00089771,0.0
 0005138,0.00003349,0.00501742,0.00006149,-0.00009779,0.00275275,0.0001
 3409,-0.00027351,-0.06870369,0.00017089,-0.00022448,0.00516866,0.00000
 441,0.00016574,-0.00076780,-0.00003833,0.00046897,0.53030183,-0.002627
 54,0.00008208,-0.00182427,0.00017484,-0.00006240,0.00018399,-0.0029454
 1,-0.00004148,-0.00464005,0.03317425,-0.00001764,-0.01876618,0.0564556
 6,0.00007619,-0.12049199,-0.00944234,0.00007594,0.01046960,0.00010019,
 0.00014019,0.00025899,0.03922281,-0.00025798,0.55454253,0.00028029,-0.
 00000333,0.00077097,-0.00243811,0.00005422,0.00424734,-0.01948625,0.00
 007245,-0.01591946,-0.26283988,0.00026834,-0.11574194,0.00152228,-0.00
 000744,0.00127808,0.00180806,-0.00000535,0.00042103,-0.00065675,-0.000
 09528,-0.00103655,0.00058491,0.00000465,0.00071578,0.27991698,-0.00003
 807,-0.00085993,0.00004214,-0.00021804,0.00765415,0.00001945,0.0000051
 8,0.00317054,-0.00000345,0.00031349,-0.03649175,0.00042280,0.00005164,
 0.00362855,-0.00003266,0.00003745,0.00644818,0.00003916,0.00005755,0.0
 0017167,-0.00012299,0.00005057,-0.00230343,0.00001117,-0.00032727,0.02
 485585,0.00087684,0.00001273,-0.00074542,0.00324376,-0.00002735,-0.000
 89372,0.01568081,-0.00005493,0.01122716,-0.11595889,0.00036716,-0.1248
 2585,-0.02905243,0.00004187,-0.01050367,0.00112806,0.00002793,-0.00591
 038,0.00053281,0.00005905,0.00049624,-0.00086762,-0.00004759,0.0016811
 7,0.12526565,-0.00036233,0.12978177,0.00478801,0.00007911,0.02808736,-
 0.00424171,0.00004596,0.00236527,-0.00125298,-0.00000798,0.00009309,-0
 .00479709,-0.00003337,-0.00253462,0.00245378,-0.00004352,-0.02720179,-
 0.05841111,-0.00019004,-0.00898273,0.00037647,-0.00009104,0.00103501,0
 .00140796,0.00005600,-0.00187532,0.00011186,0.00001306,-0.00151231,0.0
 5912065,0.00001762,0.00295807,-0.00000971,-0.00010842,0.00712027,0.000
 19139,-0.00006004,-0.00088647,0.00001650,-0.00001549,0.00641928,-0.000
 05874,0.00004778,0.00394057,-0.00001373,-0.00023846,-0.03592361,-0.000
 48576,0.00012570,0.00019803,-0.00000859,0.00001088,-0.00433055,-0.0000
 7950,0.00000409,0.00018609,-0.00001198,0.00016933,0.02490790,-0.003196
 12,-0.00003935,-0.01276373,0.00326258,-0.00003118,0.00102055,-0.000073
 73,-0.00000766,0.00072139,-0.00316975,-0.00000475,0.00073561,0.0024958
 9,-0.00002274,-0.01307039,-0.00982929,-0.00042940,-0.32931942,-0.00043
 036,0.00005825,-0.00054911,0.00143977,0.00003796,0.00057142,0.00004704
 ,0.00000204,-0.00071928,0.00956732,0.00048012,0.35133356,-0.00487254,-
 0.00000774,-0.00241363,0.00325145,0.00009677,-0.02780235,-0.05912699,-
 0.00016549,-0.00931742,0.00468964,-0.00001792,0.02831000,-0.00430345,-
 0.00000476,0.00226640,-0.00122403,-0.00000102,0.00011049,0.00149973,0.
 00044262,-0.00072007,0.00048358,-0.00002858,0.00114122,0.00094039,0.00
 000145,-0.00040815,0.00009584,-0.00000301,0.00002894,0.05917132,-0.000
 01723,0.00636253,-0.00014904,-0.00043021,0.00365635,0.00028703,0.00009
 998,-0.03641103,0.00180252,0.00006379,0.00311602,0.00007388,-0.0000332
 4,0.00768599,0.00006970,-0.00004217,-0.00084125,0.00000641,-0.00002029
 ,-0.00270231,-0.00082280,0.00002027,0.00019574,0.00000801,-0.00000378,
 -0.00430584,-0.00001708,0.00000210,-0.00099422,0.00000444,0.00000348,0
 .02491966,-0.00310217,0.00006935,0.00076624,0.00234693,0.00017973,-0.0
 1260481,-0.00929843,0.00163326,-0.32856494,-0.00320665,-0.00002376,-0.
 01294322,0.00326332,0.00005162,0.00098655,-0.00001693,0.00000049,0.000
 73762,0.00124880,0.00027763,0.00070054,-0.00046305,0.00002560,-0.00062
 949,0.00034832,-0.00003687,0.00090452,0.00003098,-0.00001062,-0.000119
 46,0.00956549,-0.00179960,0.35077756,-0.26324326,-0.00157031,-0.116805
 36,0.00061040,-0.00009412,0.00134517,0.00187929,-0.00007123,0.00034751
 ,0.00028586,0.00000737,0.00073944,-0.00243686,-0.00003944,0.00420819,-
 0.01923215,0.00000720,-0.01582229,0.00086808,-0.00003039,0.00106093,-0
 .00058451,-0.00004522,-0.00090888,-0.00009288,0.00000765,-0.00007509,0
 .00089164,0.00002976,0.00036434,0.00007136,0.00003729,0.00002585,0.280
 57552,-0.00161306,-0.03599035,-0.00096857,-0.00044872,0.00392230,0.000
 27302,0.00012012,0.00649883,0.00008762,-0.00002031,-0.00090430,0.00003
 175,-0.00007514,0.00707574,-0.00000115,-0.00003409,0.00300891,-0.00009
 524,0.00072205,-0.00397343,0.00040716,0.00000115,0.00018813,-0.0000185
 6,-0.00000272,-0.00101742,-0.00000387,0.00001164,-0.00400439,0.0000114
 2,0.00001709,0.00018602,-0.00003440,0.00163073,0.02488975,-0.11617388,
 -0.00066775,-0.12451173,-0.02842131,-0.00017968,-0.01096017,0.00099904
 ,-0.00003040,-0.00593822,0.00088554,0.00000116,-0.00080870,0.00331445,
 -0.00002447,-0.00078986,0.01552635,0.00004275,0.01125633,-0.00188641,-
 0.00050043,0.00119803,0.00051898,0.00001369,0.00040172,-0.00007289,0.0
 0000722,0.00007634,-0.00042006,0.00001672,0.00085913,-0.00153401,0.000
 00117,-0.00067864,0.12550048,0.00087999,0.12984765,0.00158429,0.000539
 08,-0.00277145,-0.02222058,-0.00704936,-0.01677213,-0.00368978,-0.0005
 9039,0.00445692,-0.00057396,0.00045451,-0.00126274,0.00035749,-0.00006
 041,0.00025401,-0.00034311,0.00040735,0.00034038,-0.20080991,-0.057947
 66,-0.11372604,0.00005020,-0.00005566,0.00005067,-0.00040012,0.0000302
 6,0.00021301,-0.00000091,-0.00001266,0.00001779,0.00020827,-0.00014260
 ,0.00006826,0.00063058,-0.00041469,0.00117803,0.22097864,0.00007402,0.
 00027144,-0.00033186,0.00261595,-0.00089418,0.00074237,0.00007129,0.00
 101365,0.00002456,0.00049673,0.00029977,-0.00040984,0.00017462,-0.0000
 0535,0.00038752,-0.00022187,-0.00016949,0.00010724,-0.05948215,-0.0677
 0859,-0.04214122,0.00000728,0.00002788,-0.00003087,0.00002378,-0.00012
 182,-0.00000802,-0.00001632,-0.00004216,0.00000655,-0.00006010,-0.0001
 7541,-0.00012103,-0.00000734,0.00018306,0.00030854,0.06345527,0.068945
 52,0.00132504,0.00006938,0.00092017,0.01431769,0.00583747,0.01045642,0
 .00227258,-0.00019962,-0.00199817,0.00063680,-0.00030972,0.00052034,0.
 00005003,0.00010471,0.00007228,-0.00012177,0.00024991,0.00032204,-0.11
 721722,-0.04257604,-0.13450375,0.00000316,-0.00010591,0.00000543,0.000
 18025,-0.00001287,-0.00009782,-0.00006109,-0.00003379,0.00003973,0.000
 29523,0.00009425,0.00020524,-0.00025255,-0.00023730,-0.00009169,0.1245
 3132,0.04809450,0.14458863,-0.00378747,-0.00029529,0.00050670,0.001355
 12,-0.01755593,0.02364998,0.00123014,0.00037313,0.00097233,0.00030656,
 0.00019334,0.00000380,0.00009344,-0.00023050,0.00024326,0.00004442,0.0
 0092988,0.00083461,-0.04830249,0.00843135,-0.01387117,-0.00007379,0.00
 004129,-0.00010080,0.00002552,0.00001939,-0.00004124,-0.00025625,0.000
 07640,0.00017796,-0.00032621,-0.00011943,-0.00068410,0.00010733,-0.000
 23244,0.00025788,-0.00093311,0.01669694,-0.01855727,0.05157965,0.00000
 320,0.00014085,-0.00031929,0.00036259,0.00146424,-0.00331592,0.0005236
 9,0.00088063,0.00023777,-0.00036659,0.00002940,0.00021422,-0.00022054,
 -0.00002546,-0.00042310,0.00063654,-0.00010155,-0.00032239,0.00780722,
 -0.14300474,0.12724802,-0.00004384,0.00000522,-0.00005750,-0.00003256,
 -0.00002491,0.00001932,0.00001290,-0.00002627,-0.00001758,-0.00041326,
 -0.00012668,-0.00022879,0.00008396,0.00008376,0.00005327,0.00041994,0.
 00652759,-0.00871254,-0.01121283,0.15315376,0.00325360,0.00072842,-0.0
 0061073,0.00018948,0.00835758,-0.01499568,-0.00254908,-0.00071888,0.00
 077854,0.00071074,-0.00078230,-0.00058228,0.00002132,0.00003357,0.0005
 2934,-0.00032122,-0.00076428,-0.00057098,-0.01313991,0.12621933,-0.206
 47597,0.00010001,0.00018493,0.00005401,0.00004045,0.00004442,-0.000002
 21,0.00020949,-0.00001494,-0.00016538,0.00033403,0.00074069,0.00054682
 ,0.00006172,0.00039208,0.00034279,-0.00050576,0.01109545,-0.01390386,0
 .01103030,-0.13894502,0.22544750,-0.00076067,0.00019609,-0.00128154,-0
 .00766945,0.02552894,0.01144959,-0.00002251,-0.00053988,0.00110457,0.0
 0023110,-0.00118786,-0.00012280,0.00036151,0.00024459,0.00066418,-0.00
 110969,-0.00106346,0.00020918,-0.05349174,0.04493808,0.01497431,-0.000
 11096,0.00004702,-0.00011270,-0.00006866,0.00002997,-0.00002088,-0.000
 10234,-0.00006183,0.00009738,-0.00021240,0.00058883,-0.00044034,0.0001
 5125,0.00033809,0.00015808,0.00521145,-0.02379217,-0.00739933,-0.00096
 919,0.00247480,0.00053405,0.05870687,0.00006310,-0.00001135,0.00068229
 ,0.00153860,0.00361104,-0.00022601,-0.00062226,0.00076711,-0.00036009,
 0.00049393,0.00018949,-0.00033263,-0.00019134,-0.00002726,0.00025972,0
 .00029284,-0.00005718,-0.00009266,0.04199005,-0.26283950,-0.07889618,0
 .00006592,-0.00008840,0.00000627,0.00004770,0.00000510,-0.00001828,0.0
 0002650,0.00002601,-0.00002240,0.00013953,-0.00038626,0.00001981,0.000
 04884,-0.00014006,0.00007826,0.00097820,-0.00814775,-0.00228141,0.0028
 8698,-0.01897792,-0.00656623,-0.04775392,0.28606824,0.00204797,0.00037
 818,-0.00060644,0.00558928,-0.01502603,-0.00758995,-0.00215510,0.00005
 286,0.00029610,0.00083668,0.00050217,-0.00131297,0.00036676,-0.0000759
 0,0.00090115,-0.00055032,0.00126969,-0.00016591,0.01424586,-0.08043703
 ,-0.07279448,0.00010828,-0.00014762,0.00002370,0.00003945,0.00001190,-
 0.00000598,0.00007767,-0.00003669,-0.00010400,-0.00005050,-0.00029416,
 0.00010962,-0.00001713,-0.00073195,-0.00008226,0.00387259,-0.01774874,
 -0.00651722,-0.00450053,0.02449896,0.00965590,-0.01996315,0.08778098,0
 .07830094,0.00001699,-0.00000774,0.00011924,0.00002421,-0.00001640,-0.
 00019707,0.00064062,0.00003568,0.00132627,-0.00545905,-0.00000273,0.00
 179654,0.00526600,-0.00059621,0.02960461,0.00172940,0.00001890,0.00151
 621,-0.00002667,0.00001207,-0.00004477,-0.05596826,0.00092807,-0.04926
 071,0.00003657,-0.00001249,0.00018410,-0.00028883,-0.00000767,-0.00085
 325,-0.00034106,-0.00000079,0.00022834,0.00005424,0.00000272,-0.000033
 93,-0.00002114,-0.00000039,-0.00000086,0.00000576,0.00000276,-0.000015
 17,-0.00000377,-0.00000424,0.00000954,0.06150040,-0.00001034,-0.000224
 23,0.00000743,-0.00002328,-0.00000829,-0.00002095,0.00005262,0.0004885
 9,-0.00001882,-0.00001602,0.00124355,0.00001946,0.00005303,-0.00153203
 ,-0.00012675,0.00002694,0.00001792,0.00001575,-0.00000251,0.00002718,-
 0.00001250,0.00086327,-0.04670458,0.00528465,0.00000420,-0.00029300,0.
 00000598,-0.00002951,0.00029654,-0.00000906,-0.00000030,-0.00015462,-0
 .00000018,0.00000032,-0.00004894,0.00000102,-0.00000369,0.00000218,0.0
 0000207,0.00001081,-0.00000224,0.00000373,-0.00000598,-0.00000475,0.00
 000305,-0.00110922,0.04523565,0.00052915,-0.00002573,0.00000346,0.0001
 0643,0.00002350,0.00041638,-0.00084865,-0.00001925,-0.00057986,0.00383
 279,0.00004643,-0.00056262,-0.00372172,0.00023719,-0.01649586,-0.00281
 711,-0.00005813,0.00085213,0.00002380,-0.00002093,0.00007997,-0.044772
 81,0.00524854,-0.30139514,-0.00004072,0.00000181,0.00033280,0.00076171
 ,0.00004216,0.00100442,0.00026216,0.00000118,-0.00017419,0.00004415,0.
 00000332,-0.00001211,0.00004834,0.00000518,-0.00000135,-0.00000611,0.0
 0001037,-0.00000388,0.00001957,-0.00000935,-0.00002590,0.04924641,-0.0
 0579105,0.32857522,-0.00056793,0.00147571,-0.00029603,0.00032958,-0.00
 020419,0.00021404,-0.00101167,0.00094173,0.00009034,0.00129352,0.00069
 453,-0.00207056,-0.01900316,-0.02100061,-0.00585162,-0.00199754,-0.000
 40028,0.00293081,0.00002096,-0.00009159,0.00012551,-0.12122184,-0.1148
 2241,-0.03448781,0.00038673,-0.00071280,0.00041877,0.00006604,-0.00069
 627,0.00003824,-0.00000360,-0.00003000,0.00004330,-0.00028103,0.000024
 25,0.00010796,-0.00002568,-0.00001504,-0.00001765,-0.00004981,-0.00001
 720,0.00004873,-0.00005672,-0.00000818,-0.00000618,-0.00361001,-0.0041
 1912,-0.00140206,0.13552663,0.00024229,-0.00020908,-0.00011656,0.00031
 137,-0.00004500,0.00020111,-0.00044896,0.00016954,0.00029417,-0.000000
 49,0.00110114,-0.00065399,0.00130559,0.00289169,0.00128462,0.00045190,
 -0.00024939,0.00028665,-0.00000436,-0.00000074,0.00004881,-0.11422304,
 -0.20977186,-0.04996506,-0.00000710,-0.00034633,0.00037107,0.00006039,
 0.00008397,0.00000513,-0.00003891,-0.00001419,0.00002901,-0.00000158,0
 .00001933,0.00000504,-0.00000908,-0.00001310,0.00000356,-0.00002363,-0
 .00000710,-0.00000129,-0.00001651,0.00000560,0.00000140,0.00185728,0.0
 0138080,0.00000573,0.12520281,0.22724799,0.00049456,-0.00038574,-0.000
 41511,0.00059500,0.00026991,0.00057715,-0.00084345,-0.00022796,0.00038
 906,0.00119185,-0.00023079,0.00002374,0.00979104,0.01434952,0.00435495
 ,-0.00019734,0.00020317,-0.00107798,-0.00006989,-0.00018660,-0.0000357
 3,-0.03370379,-0.04903938,-0.06214958,-0.00027588,0.00000644,-0.000388
 78,0.00018810,-0.00008037,0.00027138,-0.00003216,-0.00001089,-0.000010
 88,0.00010026,-0.00008203,-0.00005729,0.00000187,0.00000320,0.00001460
 ,0.00000721,0.00003236,-0.00003316,0.00009821,0.00000438,-0.00004240,-
 0.01706219,-0.02645695,-0.00648500,0.03518250,0.05551366,0.06356290,-0
 .00054248,-0.00150597,-0.00023231,0.00036244,0.00011970,0.00020417,-0.
 00106896,-0.00096804,0.00007722,0.00123828,-0.00063974,-0.00207159,-0.
 01860738,0.02161379,-0.00487093,-0.00181252,0.00032768,0.00281835,-0.0
 0004103,0.00024467,0.00012467,-0.11619132,0.11392592,-0.02927389,0.000
 36908,0.00069102,0.00039278,0.00003896,0.00072229,0.00001524,-0.000001
 29,0.00002400,0.00004206,-0.00025485,-0.00002666,0.00009570,-0.0000026
 2,-0.00002049,0.00001563,-0.00004962,-0.00002078,-0.00000277,-0.000084
 06,0.00000776,0.00004882,-0.00355540,0.00430878,-0.00126533,0.01020554
 ,-0.01465798,0.00453411,0.12999721,-0.00018369,-0.00021920,0.00006813,
 -0.00030599,-0.00000247,-0.00016575,0.00045398,0.00018534,-0.00029574,
 0.00001071,0.00108717,0.00066732,-0.00107376,0.00312490,-0.00131565,-0
 .00047367,-0.00026227,-0.00028823,-0.00000505,-0.00008197,-0.00005933,
 0.11301013,-0.21793552,0.04484649,0.00000540,-0.00035568,-0.00035367,-
 0.00006520,0.00007096,-0.00002180,0.00004015,-0.00001050,-0.00003124,0
 .00000652,0.00002307,-0.00000609,0.00000161,0.00000677,0.00001335,0.00
 001054,0.00001140,-0.00000727,0.00003522,0.00000784,-0.00000108,-0.001
 09959,0.00028027,0.00029903,0.01377866,-0.02224326,0.00631808,-0.12414
 595,0.23631314,0.00052487,0.00039148,-0.00052520,0.00058763,-0.0001628
 9,0.00064857,-0.00085172,0.00028779,0.00036655,0.00120220,0.00025571,-
 0.00000986,0.00956786,-0.01459036,0.00374469,-0.00039817,-0.00026540,-
 0.00098922,-0.00002282,0.00002934,-0.00005032,-0.02839268,0.04377179,-
 0.05829585,-0.00026692,-0.00003738,-0.00040689,0.00017193,0.00009753,0
 .00025356,-0.00003566,0.00000429,-0.00000907,0.00008326,0.00008670,-0.
 00005134,0.00000493,0.00001647,-0.00003101,0.00007721,0.00002785,-0.00
 001076,0.00003163,-0.00002645,-0.00003990,-0.01656332,0.02709311,-0.00
 552848,0.00493171,-0.00731305,0.00150214,0.02934806,-0.04966653,0.0594
 3238\\0.00006761,0.00001453,-0.00000017,-0.00006838,0.00000523,-0.0000
 0064,0.00000121,-0.00001664,0.00000006,-0.00000098,-0.00000614,0.00000
 125,0.00000268,-0.00000086,-0.00000173,-0.00000151,0.00000430,0.000000
 78,0.00000081,0.00000047,-0.00000019,-0.00000292,-0.00000098,0.0000017
 4,0.00000022,-0.00000050,0.,-0.00000017,-0.00000064,0.00000002,0.,-0.0
 0000052,-0.00000002,-0.00000010,-0.00000046,-0.00000008,-0.00000069,0.
 00000039,-0.00000019,-0.00000027,-0.00000034,0.00000016,0.00000090,-0.
 00000025,-0.00000034,0.00000047,-0.00000352,-0.00000033,-0.00000076,0.
 00000309,-0.00000336,0.00000188,0.00000284,0.00000302\\\@


 BLESSED ARE THOSE WHO NOUGHT EXPECT,
 FOR THEY SHALL NOT BE DISAPPOINTED..  WALCOT - ODE TO PITT
 Job cpu time:  0 days  1 hours 29 minutes 38.7 seconds.
 File lengths (MBytes):  RWF=    116 Int=      0 D2E=      0 Chk=     13 Scr=      1
 Normal termination of Gaussian 03 at Tue Apr 17 20:44:22 2012.
