[Molden Format]
[Atoms] Angs
 C     1  6     0.000000     0.000000     0.599677
 C     2  6     0.000000     0.000000    -0.599677
 H     3  1     0.000000     0.000000     1.662815
 H     4  1     0.000000     0.000000    -1.662815
[FREQ]
  657.0597
  657.0597
  773.2940
  773.2940
 2062.3097
 3419.8356
 3522.5577
[INT]
    0.0000
    0.0000
  110.9900
  110.9900
    0.0000
   93.2305
    0.0000
[FR-COORD]
 C     0.000000     0.000000     1.133225
 C     0.000000     0.000000    -1.133225
 H     0.000000     0.000000     3.142265
 H     0.000000     0.000000    -3.142265
[FR-NORM-COORD]
vibration     1
    0.160000     0.000000     0.000000
   -0.160000     0.000000     0.000000
   -0.690000     0.000000     0.000000
    0.690000     0.000000     0.000000
vibration     2
    0.000000     0.160000     0.000000
    0.000000    -0.160000     0.000000
    0.000000    -0.690000     0.000000
    0.000000     0.690000     0.000000
vibration     3
    0.000000     0.060000     0.000000
    0.000000     0.060000     0.000000
    0.000000    -0.700000     0.000000
    0.000000    -0.700000     0.000000
vibration     4
    0.060000     0.000000     0.000000
    0.060000     0.000000     0.000000
   -0.700000     0.000000     0.000000
   -0.700000     0.000000     0.000000
vibration     5
    0.000000     0.000000     0.360000
    0.000000     0.000000    -0.360000
    0.000000     0.000000     0.610000
    0.000000     0.000000    -0.610000
vibration     6
    0.000000     0.000000     0.060000
    0.000000     0.000000     0.060000
    0.000000     0.000000    -0.700000
    0.000000     0.000000    -0.700000
vibration     7
3105036184601417870297958976925005110513772034233393222278104076052101905372753772661756817657292955900975461394262146412343160088229628782888574550082362278408909952041699811100530571263196889650525998387432937501785693707632115712.000000    -0.000000     0.000000
    0.000000     0.000000     0.000000
    0.000000     0.000000     0.000000
    0.000000     0.000000     0.000000
