 Entering Gaussian System, Link 0=/usr/local/g03/g03
 Initial command:
 /usr/local/g03/l1.exe /home/chaquin/ENSEIGNEMENT/Gau-4763.inp -scrdir=/home/chaquin/ENSEIGNEMENT/
 Entering Link 1 = /usr/local/g03/l1.exe PID=      4767.
  
 Copyright (c) 1988,1990,1992,1993,1995,1998,2003,2004, Gaussian, Inc.
                  All Rights Reserved.
  
 This is the Gaussian(R) 03 program.  It is based on the
 the Gaussian(R) 98 system (copyright 1998, Gaussian, Inc.),
 the Gaussian(R) 94 system (copyright 1995, Gaussian, Inc.),
 the Gaussian 92(TM) system (copyright 1992, Gaussian, Inc.),
 the Gaussian 90(TM) system (copyright 1990, Gaussian, Inc.),
 the Gaussian 88(TM) system (copyright 1988, Gaussian, Inc.),
 the Gaussian 86(TM) system (copyright 1986, Carnegie Mellon
 University), and the Gaussian 82(TM) system (copyright 1983,
 Carnegie Mellon University). Gaussian is a federally registered
 trademark of Gaussian, Inc.
  
 This software contains proprietary and confidential information,
 including trade secrets, belonging to Gaussian, Inc.
  
 This software is provided under written license and may be
 used, copied, transmitted, or stored only in accord with that
 written license.
  
 The following legend is applicable only to US Government
 contracts under FAR:
  
                    RESTRICTED RIGHTS LEGEND
  
 Use, reproduction and disclosure by the US Government is
 subject to restrictions as set forth in subparagraphs (a)
 and (c) of the Commercial Computer Software - Restricted
 Rights clause in FAR 52.227-19.
  
 Gaussian, Inc.
 340 Quinnipiac St., Bldg. 40, Wallingford CT 06492
  
  
 ---------------------------------------------------------------
 Warning -- This program may not be used in any manner that
 competes with the business of Gaussian, Inc. or will provide
 assistance to any competitor of Gaussian, Inc.  The licensee
 of this program is prohibited from giving any competitor of
 Gaussian, Inc. access to this program.  By using this program,
 the user acknowledges that Gaussian, Inc. is engaged in the
 business of creating and licensing software in the field of
 computational chemistry and represents and warrants to the
 licensee that it is not a competitor of Gaussian, Inc. and that
 it will not use this program in any manner prohibited above.
 ---------------------------------------------------------------
  

 Cite this work as:
 Gaussian 03, Revision C.02,
 M. J. Frisch, G. W. Trucks, H. B. Schlegel, G. E. Scuseria, 
 M. A. Robb, J. R. Cheeseman, J. A. Montgomery, Jr., T. Vreven, 
 K. N. Kudin, J. C. Burant, J. M. Millam, S. S. Iyengar, J. Tomasi, 
 V. Barone, B. Mennucci, M. Cossi, G. Scalmani, N. Rega, 
 G. A. Petersson, H. Nakatsuji, M. Hada, M. Ehara, K. Toyota, 
 R. Fukuda, J. Hasegawa, M. Ishida, T. Nakajima, Y. Honda, O. Kitao, 
 H. Nakai, M. Klene, X. Li, J. E. Knox, H. P. Hratchian, J. B. Cross, 
 C. Adamo, J. Jaramillo, R. Gomperts, R. E. Stratmann, O. Yazyev, 
 A. J. Austin, R. Cammi, C. Pomelli, J. W. Ochterski, P. Y. Ayala, 
 K. Morokuma, G. A. Voth, P. Salvador, J. J. Dannenberg, 
 V. G. Zakrzewski, S. Dapprich, A. D. Daniels, M. C. Strain, 
 O. Farkas, D. K. Malick, A. D. Rabuck, K. Raghavachari, 
 J. B. Foresman, J. V. Ortiz, Q. Cui, A. G. Baboul, S. Clifford, 
 J. Cioslowski, B. B. Stefanov, G. Liu, A. Liashenko, P. Piskorz, 
 I. Komaromi, R. L. Martin, D. J. Fox, T. Keith, M. A. Al-Laham, 
 C. Y. Peng, A. Nanayakkara, M. Challacombe, P. M. W. Gill, 
 B. Johnson, W. Chen, M. W. Wong, C. Gonzalez, and J. A. Pople, 
 Gaussian, Inc., Wallingford CT, 2004.
 
 ******************************************
 Gaussian 03:  AM64L-G03RevC.02 12-Jun-2004
                18-Mar-2012 
 ******************************************
 %chk=geom
 ----------------------------------------------------
 # B3LYP 6-311+G** geom=checkpoint freq pop=none test
 ----------------------------------------------------
 1/10=4,29=2,30=1,38=1/1,3;
 2/40=1/2;
 3/5=4,6=6,7=111,11=2,16=1,25=1,30=1,74=-5/1,2,3;
 4//1;
 5/5=2,38=5/2;
 8/6=4,10=90,11=11/1;
 11/6=1,8=1,9=11,15=111,16=1/1,2,10;
 10/6=1/2;
 7/8=1,10=1,25=1/1,2,3,16;
 1/10=4,30=1/3;
 99//99;
 ---------------------------
 *** Vibrations NH3 **** 0 1
 ---------------------------
 Z-Matrix taken from the checkpoint file:
 geom.chk
 Charge =  0 Multiplicity = 1
 X
 X,1,x
 C,1,cx,2,a
 C,1,cx,2,a,3,d,0
 H,3,ch,1,a1,2,d1,0
 H,3,ch,1,a1,5,d,0
 H,4,ch,1,a1,6,d,0
 H,4,ch,1,a1,5,d,0
      Variables:
 ch=1.08499093
 cx=0.66438505
 a1=121.73965587
      Constants:
 x=1.
 a=90.
 d1=90.
 d=180.
 Recover connectivity data from disk.

 GradGradGradGradGradGradGradGradGradGradGradGradGradGradGradGradGradGrad
 Berny optimization.
 Initialization pass.
                       ----------------------------
                       !    Initial Parameters    !
                       ! (Angstroms and Degrees)  !
 ----------------------                            ----------------------
 !      Name          Value   Derivative information (Atomic Units)     !
 ------------------------------------------------------------------------
 !       ch          1.085    calculate D2E/DX2 analytically            !
 !       cx          0.6644   calculate D2E/DX2 analytically            !
 !       a1        121.7397   calculate D2E/DX2 analytically            !
 !        x          1.0      frozen, calculate D2E/DX2 analytically    !
 !        a         90.0      frozen, calculate D2E/DX2 analytically    !
 !       d1         90.0      frozen, calculate D2E/DX2 analytically    !
 !        d        180.0      frozen, calculate D2E/DX2 analytically    !
 ------------------------------------------------------------------------
 Trust Radius=3.00D-01 FncErr=1.00D-07 GrdErr=1.00D-07
 Number of steps in this run=   2 maximum allowed number of steps=   2.
 GradGradGradGradGradGradGradGradGradGradGradGradGradGradGradGradGradGrad

                          Input orientation:                          
 ---------------------------------------------------------------------
 Center     Atomic     Atomic              Coordinates (Angstroms)
 Number     Number      Type              X           Y           Z
 ---------------------------------------------------------------------
    1          6             0        0.664385    0.000000    0.000000
    2          6             0       -0.664385    0.000000    0.000000
    3          1             0        1.235156   -0.922728    0.000000
    4          1             0        1.235156    0.922728    0.000000
    5          1             0       -1.235156   -0.922728    0.000000
    6          1             0       -1.235156    0.922728    0.000000
 ---------------------------------------------------------------------
                    Distance matrix (angstroms):
                    1          2          3          4          5
     1  C    0.000000
     2  C    1.328770   0.000000
     3  H    1.084991   2.111796   0.000000
     4  H    1.084991   2.111796   1.845455   0.000000
     5  H    2.111796   1.084991   2.470312   3.083528   0.000000
     6  H    2.111796   1.084991   3.083528   2.470312   1.845455
                    6
     6  H    0.000000
 Stoichiometry    C2H4
 Framework group  D2H[C2"(C.C),SG(H4)]
 Deg. of freedom     3
 Full point group                 D2H     NOp   8
 Largest Abelian subgroup         D2H     NOp   8
 Largest concise Abelian subgroup D2      NOp   4
                         Standard orientation:                         
 ---------------------------------------------------------------------
 Center     Atomic     Atomic              Coordinates (Angstroms)
 Number     Number      Type              X           Y           Z
 ---------------------------------------------------------------------
    1          6             0        0.000000    0.000000    0.664385
    2          6             0        0.000000    0.000000   -0.664385
    3          1             0        0.000000    0.922728    1.235156
    4          1             0        0.000000   -0.922728    1.235156
    5          1             0        0.000000    0.922728   -1.235156
    6          1             0        0.000000   -0.922728   -1.235156
 ---------------------------------------------------------------------
 Rotational constants (GHZ):    147.2397674     30.1827446     25.0481196
 Standard basis: 6-311+G(d,p) (5D, 7F)
 There are    16 symmetry adapted basis functions of AG  symmetry.
 There are     2 symmetry adapted basis functions of B1G symmetry.
 There are     6 symmetry adapted basis functions of B2G symmetry.
 There are    10 symmetry adapted basis functions of B3G symmetry.
 There are     2 symmetry adapted basis functions of AU  symmetry.
 There are    16 symmetry adapted basis functions of B1U symmetry.
 There are    10 symmetry adapted basis functions of B2U symmetry.
 There are     6 symmetry adapted basis functions of B3U symmetry.
 Integral buffers will be    131072 words long.
 Raffenetti 2 integral format.
 Two-electron integral symmetry is turned on.
    68 basis functions,   104 primitive gaussians,    70 cartesian basis functions
     8 alpha electrons        8 beta electrons
       nuclear repulsion energy        33.4013607436 Hartrees.
 NAtoms=    6 NActive=    6 NUniq=    2 SFac= 5.66D+00 NAtFMM=   60 Big=F
 One-electron integrals computed using PRISM.
 NBasis=    68 RedAO= T  NBF=    16     2     6    10     2    16    10     6
 NBsUse=    68 1.00D-06 NBFU=    16     2     6    10     2    16    10     6
 Harris functional with IExCor=  402 diagonalized for initial guess.
 ExpMin= 4.38D-02 ExpMax= 4.56D+03 ExpMxC= 6.82D+02 IAcc=2 IRadAn=         4 AccDes= 0.00D+00
 HarFok:  IExCor= 402 AccDes= 0.00D+00 IRadAn=         4 IDoV=1
 ScaDFX=  1.000000  1.000000  1.000000  1.000000
 Initial guess orbital symmetries:
       Occupied  (AG) (B1U) (AG) (B1U) (B2U) (AG) (B3G) (B3U)
       Virtual   (B2G) (AG) (B2U) (B1U) (B3U) (AG) (B3G) (AG) (B2G)
                 (B2U) (B1U) (B1U) (B3G) (B1U) (B2U) (AG) (AG)
                 (B1U) (B3U) (B2G) (B2U) (B1U) (B3G) (AG) (B3G)
                 (B1U) (B1G) (B3U) (AU) (AG) (B2U) (B3G) (B1U)
                 (AG) (B2U) (B2G) (B3U) (B1G) (B1U) (B3G) (B2G)
                 (AU) (AG) (B1U) (AG) (B2U) (B2U) (B3G) (B3U) (AG)
                 (B1U) (B1U) (B2G) (B3G) (AG) (B2U) (B3G) (B1U)
                 (AG) (B1U)
 The electronic state of the initial guess is 1-AG.
 Requested convergence on RMS density matrix=1.00D-08 within 128 cycles.
 Requested convergence on MAX density matrix=1.00D-06.
 Requested convergence on             energy=1.00D-06.
 No special actions if energy rises.
 Keep R1 integrals in memory in canonical form, NReq=     4174460.
 SCF Done:  E(RB+HF-LYP) =  -78.6155126334     A.U. after    8 cycles
             Convg  =    0.1955D-08             -V/T =  2.0052
             S**2   =   0.0000
 Range of M.O.s used for correlation:     1    68
 NBasis=    68 NAE=     8 NBE=     8 NFC=     0 NFV=     0
 NROrb=     68 NOA=     8 NOB=     8 NVA=    60 NVB=    60

 **** Warning!!: The largest alpha MO coefficient is  0.40441573D+02

 Symmetrizing basis deriv contribution to polar:
 IMax=3 JMax=2 DiffMx= 0.00D+00
 G2DrvN: will do    7 centers at a time, making    1 passes doing MaxLOS=2.
 FoFDir/FoFCou used for L=0 through L=2.
 DoAtom=TTTTTT
          Differentiating once with respect to electric field.
                with respect to dipole field.
          Differentiating once with respect to nuclear coordinates.
          Store integrals in memory, NReq=     3910203.
          There are   9 degrees of freedom in the 1st order CPHF.
     9 vectors were produced by pass  0.
 AX will form   9 AO Fock derivatives at one time.
     9 vectors were produced by pass  1.
     9 vectors were produced by pass  2.
     9 vectors were produced by pass  3.
     9 vectors were produced by pass  4.
     8 vectors were produced by pass  5.
     4 vectors were produced by pass  6.
     1 vectors were produced by pass  7.
 Inv2:  IOpt= 1 Iter= 1 AM= 8.82D-16 Conv= 1.00D-12.
 Inverted reduced A of dimension   58 with in-core refinement.
 Isotropic polarizability for W=    0.000000       24.98 Bohr**3.
 End of Minotr Frequency-dependent properties file   721 does not exist.
 Full mass-weighted force constant matrix:
 Low frequencies ---  -50.7074  -10.5726   -0.0009   -0.0003    0.0007   11.3836
 Low frequencies ---  835.1558  974.2676  976.7729
 Diagonal vibrational polarizability:
        3.3035079       0.0950751       0.1757510
 Harmonic frequencies (cm**-1), IR intensities (KM/Mole), Raman scattering
 activities (A**4/AMU), depolarization ratios for plane and unpolarized
 incident light, reduced masses (AMU), force constants (mDyne/A),
 and normal coordinates:
                     1                      2                      3
                    B2U                    B3U                    B2G
 Frequencies --   835.1558               974.2676               976.7729
 Red. masses --     1.0427                 1.1607                 1.5189
 Frc consts  --     0.4285                 0.6491                 0.8538
 IR Inten    --     0.7917               116.5195                 0.0000
 Atom AN      X      Y      Z        X      Y      Z        X      Y      Z
   1   6     0.00  -0.04   0.00     0.08   0.00   0.00     0.15   0.00   0.00
   2   6     0.00  -0.04   0.00     0.08   0.00   0.00    -0.15   0.00   0.00
   3   1     0.00   0.24  -0.44    -0.50   0.00   0.00    -0.49   0.00   0.00
   4   1     0.00   0.24   0.44    -0.50   0.00   0.00    -0.49   0.00   0.00
   5   1     0.00   0.24   0.44    -0.50   0.00   0.00     0.49   0.00   0.00
   6   1     0.00   0.24  -0.44    -0.50   0.00   0.00     0.49   0.00   0.00
                     4                      5                      6
                    AU                     B3G                    AG
 Frequencies --  1057.8758              1238.3424              1377.6422
 Red. masses --     1.0078                 1.5262                 1.2234
 Frc consts  --     0.6645                 1.3789                 1.3680
 IR Inten    --     0.0000                 0.0000                 0.0000
 Atom AN      X      Y      Z        X      Y      Z        X      Y      Z
   1   6     0.00   0.00   0.00     0.00   0.15   0.00     0.00   0.00   0.10
   2   6     0.00   0.00   0.00     0.00  -0.15   0.00     0.00   0.00  -0.10
   3   1     0.50   0.00   0.00     0.00  -0.14   0.47     0.00  -0.20   0.45
   4   1    -0.50   0.00   0.00     0.00  -0.14  -0.47     0.00   0.20   0.45
   5   1    -0.50   0.00   0.00     0.00   0.14   0.47     0.00  -0.20  -0.45
   6   1     0.50   0.00   0.00     0.00   0.14  -0.47     0.00   0.20  -0.45
                     7                      8                      9
                    B1U                    AG                     B1U
 Frequencies --  1471.6755              1684.1460              3122.4956
 Red. masses --     1.1120                 3.1407                 1.0477
 Frc consts  --     1.4190                 5.2484                 6.0185
 IR Inten    --    10.3737                 0.0000                16.9754
 Atom AN      X      Y      Z        X      Y      Z        X      Y      Z
   1   6     0.00   0.00   0.07     0.00   0.00   0.31     0.00   0.00   0.04
   2   6     0.00   0.00   0.07     0.00   0.00  -0.31     0.00   0.00   0.04
   3   1     0.00   0.28  -0.41     0.00   0.38  -0.24     0.00  -0.43  -0.25
   4   1     0.00  -0.28  -0.41     0.00  -0.38  -0.24     0.00   0.43  -0.25
   5   1     0.00  -0.28  -0.41     0.00   0.38   0.24     0.00   0.43  -0.25
   6   1     0.00   0.28  -0.41     0.00  -0.38   0.24     0.00  -0.43  -0.25
                    10                     11                     12
                    AG                     B3G                    B2U
 Frequencies --  3137.0292              3194.4638              3222.7778
 Red. masses --     1.0730                 1.1141                 1.1176
 Frc consts  --     6.2211                 6.6986                 6.8393
 IR Inten    --     0.0000                 0.0000                24.9048
 Atom AN      X      Y      Z        X      Y      Z        X      Y      Z
   1   6     0.00   0.00  -0.05     0.00  -0.07   0.00     0.00   0.07   0.00
   2   6     0.00   0.00   0.05     0.00   0.07   0.00     0.00   0.07   0.00
   3   1     0.00   0.43   0.26     0.00   0.42   0.27     0.00  -0.42  -0.27
   4   1     0.00  -0.43   0.26     0.00   0.42  -0.27     0.00  -0.42   0.27
   5   1     0.00   0.43  -0.26     0.00  -0.42   0.27     0.00  -0.42   0.27
   6   1     0.00  -0.43  -0.26     0.00  -0.42  -0.27     0.00  -0.42  -0.27

 -------------------
 - Thermochemistry -
 -------------------
 Temperature   298.150 Kelvin.  Pressure   1.00000 Atm.
 Atom  1 has atomic number  6 and mass  12.00000
 Atom  2 has atomic number  6 and mass  12.00000
 Atom  3 has atomic number  1 and mass   1.00783
 Atom  4 has atomic number  1 and mass   1.00783
 Atom  5 has atomic number  1 and mass   1.00783
 Atom  6 has atomic number  1 and mass   1.00783
 Molecular mass:    28.03130 amu.
 Principal axes and moments of inertia in atomic units:
                           1         2         3
     EIGENVALUES --    12.25716  59.79381  72.05097
           X            0.00000   0.00000   1.00000
           Y            0.00000   1.00000   0.00000
           Z            1.00000   0.00000   0.00000
 This molecule is an asymmetric top.
 Rotational symmetry number  4.
 Rotational temperatures (Kelvin)      7.06639     1.44854     1.20212
 Rotational constants (GHZ):         147.23977    30.18274    25.04812
 Zero-point vibrational energy     133339.6 (Joules/Mol)
                                   31.86893 (Kcal/Mol)
 Vibrational temperatures:   1201.60  1401.75  1405.36  1522.05  1781.70
          (Kelvin)           1982.12  2117.41  2423.11  4492.57  4513.48
                             4596.12  4636.85
 
 Zero-point correction=                           0.050786 (Hartree/Particle)
 Thermal correction to Energy=                    0.053829
 Thermal correction to Enthalpy=                  0.054773
 Thermal correction to Gibbs Free Energy=         0.029916
 Sum of electronic and zero-point Energies=            -78.564726
 Sum of electronic and thermal Energies=               -78.561684
 Sum of electronic and thermal Enthalpies=             -78.560740
 Sum of electronic and thermal Free Energies=          -78.585596
 
                     E (Thermal)             CV                S
                      KCal/Mol        Cal/Mol-Kelvin    Cal/Mol-Kelvin
 Total                   33.778              8.101             52.314
 Electronic               0.000              0.000              0.000
 Translational            0.889              2.981             35.927
 Rotational               0.889              2.981             15.853
 Vibrational             32.000              2.139              0.535
                       Q            Log10(Q)             Ln(Q)
 Total Bot       0.173558D-13        -13.760555        -31.684848
 Total V=0       0.397658D+10          9.599510         22.103688
 Vib (Bot)       0.457505D-23        -23.339604        -53.741424
 Vib (V=0)       0.104824D+01          0.020461          0.047112
 Electronic      0.100000D+01          0.000000          0.000000
 Translational   0.583338D+07          6.765920         15.579107
 Rotational      0.650323D+03          2.813129          6.477470
 ***** Axes restored to original set *****
 -------------------------------------------------------------------
 Center     Atomic                   Forces (Hartrees/Bohr)
 Number     Number              X              Y              Z
 -------------------------------------------------------------------
    1          6           0.000075239    0.000000000    0.000000000
    2          6          -0.000075239    0.000000000    0.000000000
    3          1           0.000005218   -0.000003881    0.000000000
    4          1           0.000005218    0.000003881    0.000000000
    5          1          -0.000005218   -0.000003881    0.000000000
    6          1          -0.000005218    0.000003881    0.000000000
 -------------------------------------------------------------------
 Cartesian Forces:  Max     0.000075239 RMS     0.000025266
 ------------------------------------------------------------------------
           Internal Coordinate Forces (Hartree/Bohr or radian)
 Cent Atom N1     Length/X     N2     Alpha/Y      N3      Beta/Z       J
 ------------------------------------------------------------------------
      X 
      X     1   0.000000(   1)
   1  C     1   0.000086(   2)  2   0.000000(   8)
   2  C     1   0.000086(   3)  2   0.000000(   9)  3   0.000000(  14)  0
   3  H     3   0.000006(   4)  1   0.000005(  10)  2   0.000000(  15)  0
   4  H     3   0.000006(   5)  1   0.000005(  11)  5   0.000000(  16)  0
   5  H     4   0.000006(   6)  1   0.000005(  12)  6   0.000000(  17)  0
   6  H     4   0.000006(   7)  1   0.000005(  13)  5   0.000000(  18)  0
 ------------------------------------------------------------------------
 Internal  Forces:  Max     0.000085675 RMS     0.000028793

 GradGradGradGradGradGradGradGradGradGradGradGradGradGradGradGradGradGrad
 Berny optimization.
 Search for a local minimum.
 Step number   1 out of a maximum of   2
 All quantities printed in internal units (Hartrees-Bohrs-Radians)
 Second derivative matrix not updated -- analytic derivatives used.
 The second derivative matrix:
                          ch        cx        a1         x         a
           ch           1.42777
           cx           0.05426   2.51347
           a1          -0.06801   0.26454   1.34457
           x            0.00000   0.00000   0.00000   0.00000
           a            0.00000   0.00000   0.00000   0.00000   0.69719
           d1           0.00000   0.00000   0.00000   0.00000   0.00000
           d            0.00000   0.00000   0.00000   0.00000  -0.18735
                          d1         d
           d1          -0.00117
           d            0.00000   0.30747
     Eigenvalues ---    1.25259   1.46134   2.571871000.000001000.00000
     Eigenvalues --- 1000.000001000.00000
 Angle between quadratic step and forces=   6.26 degrees.
 Linear search not attempted -- first point.
 Variable       Old X    -DE/DX   Delta X   Delta X   Delta X     New X
                                 (Linear)    (Quad)   (Total)
    ch        2.05034   0.00002   0.00000   0.00001   0.00001   2.05035
    cx        1.25551   0.00017   0.00000   0.00007   0.00007   1.25557
    a1        2.12476   0.00002   0.00000   0.00000   0.00000   2.12476
    x         1.88973   0.00000   0.00000   0.00000   0.00000   1.88973
    a         1.57080   0.00000   0.00000   0.00000   0.00000   1.57080
    d1        1.57080   0.00000   0.00000   0.00000   0.00000   1.57080
    d         3.14159   0.00000   0.00000   0.00000   0.00000   3.14159
         Item               Value     Threshold  Converged?
 Maximum Force            0.000171     0.000450     YES
 RMS     Force            0.000101     0.000300     YES
 Maximum Displacement     0.000068     0.001800     YES
 RMS     Displacement     0.000026     0.001200     YES
 Predicted change in Energy=-5.990456D-09
 Optimization completed.
    -- Stationary point found.
                       ----------------------------
                       !   Optimized Parameters   !
                       ! (Angstroms and Degrees)  !
 ----------------------                            ----------------------
 !      Name          Value   Derivative information (Atomic Units)     !
 ------------------------------------------------------------------------
 !       ch          1.085    -DE/DX =    0.0                           !
 !       cx          0.6644   -DE/DX =    0.0002                        !
 !       a1        121.7397   -DE/DX =    0.0                           !
 !        x          1.0      -DE/DX =    0.0                           !
 !        a         90.0      -DE/DX =    0.0                           !
 !       d1         90.0      -DE/DX =    0.0                           !
 !        d        180.0      -DE/DX =    0.0                           !
 ------------------------------------------------------------------------
 GradGradGradGradGradGradGradGradGradGradGradGradGradGradGradGradGradGrad


 Test job not archived.
 1\1\GINC-CLUSTER-BIO\Freq\RB3LYP\6-311+G(d,p)\C2H4\CHAQUIN\18-Mar-2012
 \1\\# B3LYP 6-311+G** GEOM=CHECKPOINT FREQ POP=NONE TEST\\*** Vibratio
 ns NH3 **** 0 1\\0,1\X\X,1,x\C,1,cx,2,a\C,1,cx,2,a,3,d,0\H,3,ch,1,a1,2
 ,d1,0\H,3,ch,1,a1,5,d,0\H,4,ch,1,a1,6,d,0\H,4,ch,1,a1,5,d,0\\ch=1.0849
 9093\cx=0.66438505\a1=121.73965587\x=1.\a=90.\d1=90.\d=180.\\Version=A
 M64L-G03RevC.02\State=1-AG\HF=-78.6155126\RMSD=1.955e-09\RMSF=2.527e-0
 5\Dipole=0.,0.,0.\DipoleDeriv=-0.0149181,0.,0.,0.,0.1148781,0.,0.,0.,-
 0.3211444,-0.0149183,0.,0.,0.,0.1148781,0.,0.,0.,-0.3211444,0.0074591,
 0.0527995,0.,0.083686,-0.057439,0.,0.,0.,0.1605722,0.0074591,-0.052799
 5,0.,-0.083686,-0.057439,0.,0.,0.,0.1605722,0.0074591,-0.0527995,0.,-0
 .0836859,-0.057439,0.,0.,0.,0.1605722,0.0074591,0.0527995,0.,0.0836859
 ,-0.057439,0.,0.,0.,0.1605722\Polar=34.9218398,0.,21.5202115,0.,0.,18.
 5022221\PG=D02H [C2"(C1.C1),SG(H4)]\NImag=0\\0.85069778,0.,0.62914053,
 0.,0.,0.11059550,-0.56614936,0.,0.,0.85069778,0.,-0.11163913,0.,0.,0.6
 2914053,0.,0.,-0.04860415,0.,0.,0.11059550,-0.12844849,0.11883617,0.,-
 0.01382572,0.03003246,0.,0.13619552,0.12348103,-0.26217433,0.,-0.00216
 741,0.00342363,0.,-0.13434102,0.27185715,0.,0.,-0.03690353,0.,0.,0.005
 90785,0.,0.,0.02414837,-0.12844849,-0.11883617,0.,-0.01382572,-0.03003
 246,0.,0.00953671,0.01357591,0.,0.13619552,-0.12348103,-0.26217433,0.,
 0.00216741,0.00342363,0.,-0.01357591,-0.01614311,0.,0.13434102,0.27185
 715,0.,0.,-0.03690353,0.,0.,0.00590785,0.,0.,0.00285635,0.,0.,0.024148
 37,-0.01382572,-0.03003246,0.,-0.12844849,-0.11883617,0.,0.00134130,0.
 00020159,0.,-0.00479932,0.00075010,0.,0.13619552,0.00216741,0.00342363
 ,0.,-0.12348103,-0.26217433,0.,-0.00020159,0.00137222,0.,0.00075010,0.
 00166445,0.,0.13434102,0.27185715,0.,0.,0.00590785,0.,0.,-0.03690353,0
 .,0.,-0.00869957,0.,0.,0.01269052,0.,0.,0.02414837,-0.01382572,0.03003
 246,0.,-0.12844849,0.11883617,0.,-0.00479932,-0.00075010,0.,0.00134130
 ,-0.00020159,0.,0.00953671,-0.01357591,0.,0.13619552,-0.00216741,0.003
 42363,0.,0.12348103,-0.26217433,0.,-0.00075010,0.00166445,0.,0.0002015
 9,0.00137222,0.,0.01357591,-0.01614311,0.,-0.13434102,0.27185715,0.,0.
 ,0.00590785,0.,0.,-0.03690353,0.,0.,0.01269052,0.,0.,-0.00869957,0.,0.
 ,0.00285635,0.,0.,0.02414837\\-0.00007524,0.,0.,0.00007524,0.,0.,-0.00
 000522,0.00000388,0.,-0.00000522,-0.00000388,0.,0.00000522,0.00000388,
 0.,0.00000522,-0.00000388,0.\\\@


 ON A TOMBSTONE, "HERE LIES LESTER MOORE,
 FOUR SLUGS FROM A 44, NO LES, NO MORE".
 Job cpu time:  0 days  0 hours  0 minutes 37.2 seconds.
 File lengths (MBytes):  RWF=     13 Int=      0 D2E=      0 Chk=     15 Scr=      1
 Normal termination of Gaussian 03 at Sun Mar 18 11:44:34 2012.
49.19user 3.70system 0:52.91elapsed 99%CPU (0avgtext+0avgdata 0maxresident)k
0inputs+0outputs (0major+1197955minor)pagefaults 0swaps
