[Molden Format]
[Atoms] Angs
 C     1  6     0.664385     0.000000     0.000000
 C     2  6    -0.664385     0.000000     0.000000
 H     3  1     1.235156    -0.922728     0.000000
 H     4  1     1.235156     0.922728     0.000000
 H     5  1    -1.235156    -0.922728     0.000000
 H     6  1    -1.235156     0.922728     0.000000
[FREQ]
  835.1558
  974.2676
  976.7729
 1057.8758
 1238.3424
 1377.6422
 1471.6755
 1684.1460
 3122.4956
 3137.0292
 3194.4638
 3222.7778
[INT]
    0.7917
  116.5195
    0.0000
    0.0000
    0.0000
    0.0000
   10.3737
    0.0000
   16.9754
    0.0000
    0.0000
   24.9048
[FR-COORD]
 C     1.255506     0.000000     0.000000
 C    -1.255506     0.000000     0.000000
 H     2.334106    -1.743703     0.000000
 H     2.334106     1.743703     0.000000
 H    -2.334106    -1.743703     0.000000
 H    -2.334106     1.743703     0.000000
[FR-NORM-COORD]
vibration     1
    0.000000    -0.040000     0.000000
    0.000000    -0.040000     0.000000
    0.000000     0.240000    -0.440000
    0.000000     0.240000     0.440000
    0.000000     0.240000     0.440000
    0.000000     0.240000    -0.440000
vibration     2
    0.080000     0.000000     0.000000
    0.080000     0.000000     0.000000
   -0.500000     0.000000     0.000000
   -0.500000     0.000000     0.000000
   -0.500000     0.000000     0.000000
   -0.500000     0.000000     0.000000
vibration     3
    0.150000     0.000000     0.000000
   -0.150000     0.000000     0.000000
   -0.490000     0.000000     0.000000
   -0.490000     0.000000     0.000000
    0.490000     0.000000     0.000000
    0.490000     0.000000     0.000000
vibration     4
    0.000000     0.000000     0.000000
    0.000000     0.000000     0.000000
    0.500000     0.000000     0.000000
   -0.500000     0.000000     0.000000
   -0.500000     0.000000     0.000000
    0.500000     0.000000     0.000000
vibration     5
    0.000000     0.150000     0.000000
    0.000000    -0.150000     0.000000
    0.000000    -0.140000     0.470000
    0.000000    -0.140000    -0.470000
    0.000000     0.140000     0.470000
    0.000000     0.140000    -0.470000
vibration     6
    0.000000     0.000000     0.100000
    0.000000     0.000000    -0.100000
    0.000000    -0.200000     0.450000
    0.000000     0.200000     0.450000
    0.000000    -0.200000    -0.450000
    0.000000     0.200000    -0.450000
vibration     7
    0.000000     0.000000     0.070000
    0.000000     0.000000     0.070000
    0.000000     0.280000    -0.410000
    0.000000    -0.280000    -0.410000
    0.000000    -0.280000    -0.410000
    0.000000     0.280000    -0.410000
vibration     8
    0.000000     0.000000     0.310000
    0.000000     0.000000    -0.310000
    0.000000     0.380000    -0.240000
    0.000000    -0.380000    -0.240000
    0.000000     0.380000     0.240000
    0.000000    -0.380000     0.240000
vibration     9
    0.000000     0.000000     0.040000
    0.000000     0.000000     0.040000
    0.000000    -0.430000    -0.250000
    0.000000     0.430000    -0.250000
    0.000000     0.430000    -0.250000
    0.000000    -0.430000    -0.250000
vibration    10
    0.000000     0.000000    -0.050000
    0.000000     0.000000     0.050000
    0.000000     0.430000     0.260000
    0.000000    -0.430000     0.260000
    0.000000     0.430000    -0.260000
    0.000000    -0.430000    -0.260000
vibration    11
    0.000000    -0.070000     0.000000
    0.000000     0.070000     0.000000
    0.000000     0.420000     0.270000
    0.000000     0.420000    -0.270000
    0.000000    -0.420000     0.270000
    0.000000    -0.420000    -0.270000
vibration    12
    0.000000     0.070000     0.000000
    0.000000     0.070000     0.000000
    0.000000    -0.420000    -0.270000
    0.000000    -0.420000     0.270000
    0.000000    -0.420000     0.270000
    0.000000    -0.420000    -0.270000
