 Entering Gaussian System, Link 0=/usr/local/g03/g03
 Initial command:
 /usr/local/g03/l1.exe /home/chaquin/ENSEIGNEMENT/Gau-12247.inp -scrdir=/home/chaquin/ENSEIGNEMENT/
 Entering Link 1 = /usr/local/g03/l1.exe PID=     12253.
  
 Copyright (c) 1988,1990,1992,1993,1995,1998,2003,2004, Gaussian, Inc.
                  All Rights Reserved.
  
 This is the Gaussian(R) 03 program.  It is based on the
 the Gaussian(R) 98 system (copyright 1998, Gaussian, Inc.),
 the Gaussian(R) 94 system (copyright 1995, Gaussian, Inc.),
 the Gaussian 92(TM) system (copyright 1992, Gaussian, Inc.),
 the Gaussian 90(TM) system (copyright 1990, Gaussian, Inc.),
 the Gaussian 88(TM) system (copyright 1988, Gaussian, Inc.),
 the Gaussian 86(TM) system (copyright 1986, Carnegie Mellon
 University), and the Gaussian 82(TM) system (copyright 1983,
 Carnegie Mellon University). Gaussian is a federally registered
 trademark of Gaussian, Inc.
  
 This software contains proprietary and confidential information,
 including trade secrets, belonging to Gaussian, Inc.
  
 This software is provided under written license and may be
 used, copied, transmitted, or stored only in accord with that
 written license.
  
 The following legend is applicable only to US Government
 contracts under FAR:
  
                    RESTRICTED RIGHTS LEGEND
  
 Use, reproduction and disclosure by the US Government is
 subject to restrictions as set forth in subparagraphs (a)
 and (c) of the Commercial Computer Software - Restricted
 Rights clause in FAR 52.227-19.
  
 Gaussian, Inc.
 340 Quinnipiac St., Bldg. 40, Wallingford CT 06492
  
  
 ---------------------------------------------------------------
 Warning -- This program may not be used in any manner that
 competes with the business of Gaussian, Inc. or will provide
 assistance to any competitor of Gaussian, Inc.  The licensee
 of this program is prohibited from giving any competitor of
 Gaussian, Inc. access to this program.  By using this program,
 the user acknowledges that Gaussian, Inc. is engaged in the
 business of creating and licensing software in the field of
 computational chemistry and represents and warrants to the
 licensee that it is not a competitor of Gaussian, Inc. and that
 it will not use this program in any manner prohibited above.
 ---------------------------------------------------------------
  

 Cite this work as:
 Gaussian 03, Revision C.02,
 M. J. Frisch, G. W. Trucks, H. B. Schlegel, G. E. Scuseria, 
 M. A. Robb, J. R. Cheeseman, J. A. Montgomery, Jr., T. Vreven, 
 K. N. Kudin, J. C. Burant, J. M. Millam, S. S. Iyengar, J. Tomasi, 
 V. Barone, B. Mennucci, M. Cossi, G. Scalmani, N. Rega, 
 G. A. Petersson, H. Nakatsuji, M. Hada, M. Ehara, K. Toyota, 
 R. Fukuda, J. Hasegawa, M. Ishida, T. Nakajima, Y. Honda, O. Kitao, 
 H. Nakai, M. Klene, X. Li, J. E. Knox, H. P. Hratchian, J. B. Cross, 
 C. Adamo, J. Jaramillo, R. Gomperts, R. E. Stratmann, O. Yazyev, 
 A. J. Austin, R. Cammi, C. Pomelli, J. W. Ochterski, P. Y. Ayala, 
 K. Morokuma, G. A. Voth, P. Salvador, J. J. Dannenberg, 
 V. G. Zakrzewski, S. Dapprich, A. D. Daniels, M. C. Strain, 
 O. Farkas, D. K. Malick, A. D. Rabuck, K. Raghavachari, 
 J. B. Foresman, J. V. Ortiz, Q. Cui, A. G. Baboul, S. Clifford, 
 J. Cioslowski, B. B. Stefanov, G. Liu, A. Liashenko, P. Piskorz, 
 I. Komaromi, R. L. Martin, D. J. Fox, T. Keith, M. A. Al-Laham, 
 C. Y. Peng, A. Nanayakkara, M. Challacombe, P. M. W. Gill, 
 B. Johnson, W. Chen, M. W. Wong, C. Gonzalez, and J. A. Pople, 
 Gaussian, Inc., Wallingford CT, 2004.
 
 ******************************************
 Gaussian 03:  AM64L-G03RevC.02 12-Jun-2004
                20-Mar-2012 
 ******************************************
 %chk=geom
 -----------------------------------------------
 # B3LYP 6-311+G** geom=checkpoint freq pop=none
 -----------------------------------------------
 1/10=4,29=2,30=1,38=1/1,3;
 2/40=1/2;
 3/5=4,6=6,7=111,11=2,16=1,25=1,30=1,74=-5/1,2,3;
 4//1;
 5/5=2,38=5/2;
 8/6=4,10=90,11=11/1;
 11/6=1,8=1,9=11,15=111,16=1/1,2,10;
 10/6=1/2;
 7/8=1,10=1,25=1/1,2,3,16;
 1/10=4,30=1/3;
 99//99;
 ------------------
 *** C6H6 freq ****
 ------------------
 Z-Matrix taken from the checkpoint file:
 geom.chk
 Charge =  0 Multiplicity = 1
 C
 C,1,cc
 C,2,cc,1,a
 C,3,cc,2,a,1,0.,0
 C,4,cc,3,a,2,0.,0
 C,5,cc,4,a,3,0.,0
 H,1,ch,2,a,3,d,0
 H,2,ch,3,a,4,d,0
 H,3,ch,4,a,5,d,0
 H,4,ch,5,a,6,d,0
 H,5,ch,6,a,1,d,0
 H,6,ch,1,a,2,d,0
      Variables:
 cc=1.39467741
 ch=1.08441942
      Constants:
 d=180.
 a=120.
 Recover connectivity data from disk.

 GradGradGradGradGradGradGradGradGradGradGradGradGradGradGradGradGradGrad
 Berny optimization.
 Initialization pass.
                       ----------------------------
                       !    Initial Parameters    !
                       ! (Angstroms and Degrees)  !
 ----------------------                            ----------------------
 !      Name          Value   Derivative information (Atomic Units)     !
 ------------------------------------------------------------------------
 !       cc          1.3947   calculate D2E/DX2 analytically            !
 !       ch          1.0844   calculate D2E/DX2 analytically            !
 !        d        180.0      frozen, calculate D2E/DX2 analytically    !
 !        a        120.0      frozen, calculate D2E/DX2 analytically    !
 ------------------------------------------------------------------------
 Trust Radius=3.00D-01 FncErr=1.00D-07 GrdErr=1.00D-07
 Number of steps in this run=   2 maximum allowed number of steps=   2.
 GradGradGradGradGradGradGradGradGradGradGradGradGradGradGradGradGradGrad

                          Input orientation:                          
 ---------------------------------------------------------------------
 Center     Atomic     Atomic              Coordinates (Angstroms)
 Number     Number      Type              X           Y           Z
 ---------------------------------------------------------------------
    1          6             0       -1.207826    0.000000   -0.697339
    2          6             0       -1.207826    0.000000    0.697339
    3          6             0        0.000000    0.000000    1.394677
    4          6             0        1.207826    0.000000    0.697339
    5          6             0        1.207826    0.000000   -0.697339
    6          6             0        0.000000    0.000000   -1.394677
    7          1             0       -2.146961    0.000000   -1.239548
    8          1             0       -2.146961    0.000000    1.239548
    9          1             0        0.000000    0.000000    2.479097
   10          1             0        2.146961    0.000000    1.239548
   11          1             0        2.146961    0.000000   -1.239548
   12          1             0        0.000000    0.000000   -2.479097
 ---------------------------------------------------------------------
                    Distance matrix (angstroms):
                    1          2          3          4          5
     1  C    0.000000
     2  C    1.394677   0.000000
     3  C    2.415652   1.394677   0.000000
     4  C    2.789355   2.415652   1.394677   0.000000
     5  C    2.415652   2.789355   2.415652   1.394677   0.000000
     6  C    1.394677   2.415652   2.789355   2.415652   1.394677
     7  H    1.084419   2.152558   3.398321   3.873774   3.398321
     8  H    2.152558   1.084419   2.152558   3.398321   3.873774
     9  H    3.398321   2.152558   1.084419   2.152558   3.398321
    10  H    3.873774   3.398321   2.152558   1.084419   2.152558
    11  H    3.398321   3.873774   3.398321   2.152558   1.084419
    12  H    2.152558   3.398321   3.873774   3.398321   2.152558
                    6          7          8          9         10
     6  C    0.000000
     7  H    2.152558   0.000000
     8  H    3.398321   2.479097   0.000000
     9  H    3.873774   4.293922   2.479097   0.000000
    10  H    3.398321   4.958194   4.293922   2.479097   0.000000
    11  H    2.152558   4.293922   4.958194   4.293922   2.479097
    12  H    1.084419   2.479097   4.293922   4.958194   4.293922
                   11         12
    11  H    0.000000
    12  H    2.479097   0.000000
 Stoichiometry    C6H6
 Framework group  D6H[3C2'(HC.CH)]
 Deg. of freedom     2
 Full point group                 D6H     NOp  24
 Largest Abelian subgroup         D2H     NOp   8
 Largest concise Abelian subgroup D2      NOp   4
                         Standard orientation:                         
 ---------------------------------------------------------------------
 Center     Atomic     Atomic              Coordinates (Angstroms)
 Number     Number      Type              X           Y           Z
 ---------------------------------------------------------------------
    1          6             0        0.000000    1.394677    0.000000
    2          6             0        1.207826    0.697339    0.000000
    3          6             0        1.207826   -0.697339    0.000000
    4          6             0        0.000000   -1.394677    0.000000
    5          6             0       -1.207826   -0.697339    0.000000
    6          6             0       -1.207826    0.697339    0.000000
    7          1             0        0.000000    2.479097    0.000000
    8          1             0        2.146961    1.239548    0.000000
    9          1             0        2.146961   -1.239548    0.000000
   10          1             0        0.000000   -2.479097    0.000000
   11          1             0       -2.146961   -1.239548    0.000000
   12          1             0       -2.146961    1.239548    0.000000
 ---------------------------------------------------------------------
 Rotational constants (GHZ):      5.7036308      5.7036308      2.8518154
 Standard basis: 6-311+G(d,p) (5D, 7F)
 There are    36 symmetry adapted basis functions of AG  symmetry.
 There are    27 symmetry adapted basis functions of B1G symmetry.
 There are     8 symmetry adapted basis functions of B2G symmetry.
 There are    13 symmetry adapted basis functions of B3G symmetry.
 There are     8 symmetry adapted basis functions of AU  symmetry.
 There are    13 symmetry adapted basis functions of B1U symmetry.
 There are    36 symmetry adapted basis functions of B2U symmetry.
 There are    27 symmetry adapted basis functions of B3U symmetry.
 Integral buffers will be    131072 words long.
 Raffenetti 2 integral format.
 Two-electron integral symmetry is turned on.
   168 basis functions,   264 primitive gaussians,   174 cartesian basis functions
    21 alpha electrons       21 beta electrons
       nuclear repulsion energy       203.4997953582 Hartrees.
 NAtoms=   12 NActive=   12 NUniq=    2 SFac= 5.66D+00 NAtFMM=   60 Big=F
 One-electron integrals computed using PRISM.
 NBasis=   168 RedAO= T  NBF=    36    27     8    13     8    13    36    27
 NBsUse=   168 1.00D-06 NBFU=    36    27     8    13     8    13    36    27
 Harris functional with IExCor=  402 diagonalized for initial guess.
 ExpMin= 4.38D-02 ExpMax= 4.56D+03 ExpMxC= 6.82D+02 IAcc=2 IRadAn=         4 AccDes= 0.00D+00
 HarFok:  IExCor= 402 AccDes= 0.00D+00 IRadAn=         4 IDoV=1
 ScaDFX=  1.000000  1.000000  1.000000  1.000000
 Initial guess orbital symmetries:
       Occupied  (A1G) (E1U) (E1U) (E2G) (E2G) (B1U) (A1G) (E1U)
                 (E1U) (E2G) (E2G) (A1G) (B2U) (B1U) (E1U) (E1U)
                 (A2U) (E2G) (E2G) (E1G) (E1G)
       Virtual   (E2U) (E2U) (A1G) (B2G) (E1U) (E1U) (E2G) (E2G)
                 (A1G) (A2U) (B1U) (E1G) (E1G) (B2U) (E1U) (E1U)
                 (E2G) (E2G) (A1G) (E2U) (E2U) (E1U) (E1U) (E2G)
                 (E2G) (B1U) (B2G) (E1U) (E1U) (E2G) (E2G) (E2G)
                 (E2G) (E1U) (E1U) (B1U) (A2G) (A1G) (B2U) (B1U)
                 (A2G) (E1U) (E1U) (A2U) (E2G) (E2G) (A1G) (E1G)
                 (E1G) (E2U) (E2U) (E2G) (E2G) (B2G) (B1U) (E1U)
                 (E1U) (A1G) (E1U) (E1U) (E2G) (E2G) (A2G) (E1U)
                 (E1U) (B1U) (A2U) (B1G) (E1G) (E1G) (E2G) (E2G)
                 (E2U) (E2U) (A1G) (B1U) (B2U) (E1U) (E1U) (A1G)
                 (E2U) (E2U) (B2G) (E2G) (E2G) (E1U) (E1U) (A2U)
                 (E1G) (E1G) (E2G) (E2G) (B2U) (E1G) (E1G) (E1U)
                 (E1U) (B1U) (A2G) (E2G) (E2G) (E2U) (E2U) (B2G)
                 (A1U) (A1G) (E1U) (E1U) (E2G) (E2G) (A2U) (E1U)
                 (E1U) (B1U) (A1G) (E1G) (E1G) (E1U) (E1U) (E2G)
                 (E2G) (B1U) (E2U) (E2U) (E2G) (E2G) (A2G) (B2U)
                 (B2G) (E2G) (E2G) (E1U) (E1U) (A1G) (B1U) (E2G)
                 (E2G) (B1U) (E1U) (E1U) (A2G) (A1G) (E1U) (E1U)
                 (E2G) (E2G) (B1U)
 The electronic state of the initial guess is 1-A1G.
 Requested convergence on RMS density matrix=1.00D-08 within 128 cycles.
 Requested convergence on MAX density matrix=1.00D-06.
 Requested convergence on             energy=1.00D-06.
 No special actions if energy rises.
 SCF Done:  E(RB+HF-LYP) =  -232.311242375     A.U. after    8 cycles
             Convg  =    0.2050D-08             -V/T =  2.0047
             S**2   =   0.0000
 Range of M.O.s used for correlation:     1   168
 NBasis=   168 NAE=    21 NBE=    21 NFC=     0 NFV=     0
 NROrb=    168 NOA=    21 NOB=    21 NVA=   147 NVB=   147

 **** Warning!!: The largest alpha MO coefficient is  0.13911806D+03

 Symmetrizing basis deriv contribution to polar:
 IMax=3 JMax=2 DiffMx= 0.00D+00
 G2DrvN: will do   13 centers at a time, making    1 passes doing MaxLOS=2.
 FoFDir/FoFCou used for L=0 through L=2.
 DoAtom=TTTTTTTTTTTT
          Differentiating once with respect to electric field.
                with respect to dipole field.
          Differentiating once with respect to nuclear coordinates.
 Integrals replicated using symmetry in FoFDir.
 MinBra= 0 MaxBra= 2 Meth= 1.
 IRaf=       0 NMat=   9 IRICut=       9 DoRegI=T DoRafI=T ISym2E= 2 JSym2E=2.
          There are   9 degrees of freedom in the 1st order CPHF.
     9 vectors were produced by pass  0.
 AX will form   9 AO Fock derivatives at one time.
     9 vectors were produced by pass  1.
     9 vectors were produced by pass  2.
     9 vectors were produced by pass  3.
     9 vectors were produced by pass  4.
     9 vectors were produced by pass  5.
     8 vectors were produced by pass  6.
     5 vectors were produced by pass  7.
     4 vectors were produced by pass  8.
     3 vectors were produced by pass  9.
     1 vectors were produced by pass 10.
 Inv2:  IOpt= 1 Iter= 1 AM= 1.10D-15 Conv= 1.00D-12.
 Inverted reduced A of dimension   75 with in-core refinement.
 Isotropic polarizability for W=    0.000000       66.18 Bohr**3.
 End of Minotr Frequency-dependent properties file   721 does not exist.
 Full mass-weighted force constant matrix:
 Low frequencies ---   -0.0114   -0.0113   -0.0094    7.8618    7.8618   12.7413
 Low frequencies ---  410.1809  410.1809  622.3206
 Diagonal vibrational polarizability:
        0.3373257       0.3373573       7.1522165
 Harmonic frequencies (cm**-1), IR intensities (KM/Mole), Raman scattering
 activities (A**4/AMU), depolarization ratios for plane and unpolarized
 incident light, reduced masses (AMU), force constants (mDyne/A),
 and normal coordinates:
                     1                      2                      3
                    E2U                    E2U                    E2G
 Frequencies --   410.1809               410.1809               622.3206
 Red. masses --     2.8449                 2.8449                 6.0915
 Frc consts  --     0.2820                 0.2820                 1.3900
 IR Inten    --     0.0000                 0.0000                 0.0000
 Atom AN      X      Y      Z        X      Y      Z        X      Y      Z
   1   6     0.00   0.00   0.24     0.00   0.00  -0.01     0.15  -0.06   0.00
   2   6     0.00   0.00  -0.11     0.00   0.00   0.21     0.27   0.22   0.00
   3   6     0.00   0.00  -0.12     0.00   0.00  -0.20    -0.19   0.22   0.00
   4   6     0.00   0.00   0.24     0.00   0.00  -0.01    -0.15   0.06   0.00
   5   6     0.00   0.00  -0.11     0.00   0.00   0.21    -0.27  -0.22   0.00
   6   6     0.00   0.00  -0.12     0.00   0.00  -0.20     0.19  -0.22   0.00
   7   1     0.00   0.00   0.53     0.00   0.00  -0.02    -0.22  -0.06   0.00
   8   1     0.00   0.00  -0.25     0.00   0.00   0.46     0.33   0.10   0.00
   9   1     0.00   0.00  -0.28     0.00   0.00  -0.45    -0.31   0.01   0.00
  10   1     0.00   0.00   0.53     0.00   0.00  -0.02     0.22   0.06   0.00
  11   1     0.00   0.00  -0.25     0.00   0.00   0.46    -0.33  -0.10   0.00
  12   1     0.00   0.00  -0.28     0.00   0.00  -0.45     0.31  -0.01   0.00
                     4                      5                      6
                    E2G                    A2U                    B2G
 Frequencies --   622.3206               685.4676               718.6374
 Red. masses --     6.0915                 1.0848                 3.5308
 Frc consts  --     1.3900                 0.3003                 1.0743
 IR Inten    --     0.0000               124.8767                 0.0000
 Atom AN      X      Y      Z        X      Y      Z        X      Y      Z
   1   6     0.03   0.35   0.00     0.00   0.00   0.03     0.00   0.00   0.20
   2   6    -0.18   0.07   0.00     0.00   0.00   0.03     0.00   0.00  -0.20
   3   6    -0.26   0.01   0.00     0.00   0.00   0.03     0.00   0.00   0.20
   4   6    -0.03  -0.35   0.00     0.00   0.00   0.03     0.00   0.00  -0.20
   5   6     0.18  -0.07   0.00     0.00   0.00   0.03     0.00   0.00   0.20
   6   6     0.26  -0.01   0.00     0.00   0.00   0.03     0.00   0.00  -0.20
   7   1    -0.04   0.35   0.00     0.00   0.00  -0.41     0.00   0.00   0.36
   8   1     0.00  -0.24   0.00     0.00   0.00  -0.41     0.00   0.00  -0.36
   9   1    -0.12   0.26   0.00     0.00   0.00  -0.41     0.00   0.00   0.36
  10   1     0.04  -0.35   0.00     0.00   0.00  -0.41     0.00   0.00  -0.36
  11   1     0.00   0.24   0.00     0.00   0.00  -0.41     0.00   0.00   0.36
  12   1     0.12  -0.26   0.00     0.00   0.00  -0.41     0.00   0.00  -0.36
                     7                      8                      9
                    E1G                    E1G                    E2U
 Frequencies --   861.5384               861.5384               986.1796
 Red. masses --     1.2475                 1.2475                 1.3811
 Frc consts  --     0.5455                 0.5455                 0.7914
 IR Inten    --     0.0000                 0.0000                 0.0000
 Atom AN      X      Y      Z        X      Y      Z        X      Y      Z
   1   6     0.00   0.00  -0.08     0.00   0.00  -0.01     0.00   0.00  -0.11
   2   6     0.00   0.00  -0.05     0.00   0.00   0.07     0.00   0.00   0.06
   3   6     0.00   0.00   0.03     0.00   0.00   0.08     0.00   0.00   0.04
   4   6     0.00   0.00   0.08     0.00   0.00   0.01     0.00   0.00  -0.11
   5   6     0.00   0.00   0.05     0.00   0.00  -0.07     0.00   0.00   0.06
   6   6     0.00   0.00  -0.03     0.00   0.00  -0.08     0.00   0.00   0.04
   7   1     0.00   0.00   0.56     0.00   0.00   0.09     0.00   0.00   0.56
   8   1     0.00   0.00   0.36     0.00   0.00  -0.45     0.00   0.00  -0.33
   9   1     0.00   0.00  -0.21     0.00   0.00  -0.53     0.00   0.00  -0.23
  10   1     0.00   0.00  -0.56     0.00   0.00  -0.09     0.00   0.00   0.56
  11   1     0.00   0.00  -0.36     0.00   0.00   0.45     0.00   0.00  -0.33
  12   1     0.00   0.00   0.21     0.00   0.00   0.53     0.00   0.00  -0.23
                    10                     11                     12
                    E2U                    A1G                    B2G
 Frequencies --   986.1796              1010.6071              1016.0671
 Red. masses --     1.3811                 6.0271                 1.2621
 Frc consts  --     0.7914                 3.6268                 0.7677
 IR Inten    --     0.0000                 0.0000                 0.0000
 Atom AN      X      Y      Z        X      Y      Z        X      Y      Z
   1   6     0.00   0.00  -0.01     0.00   0.28   0.00     0.00   0.00  -0.06
   2   6     0.00   0.00  -0.09     0.24   0.14   0.00     0.00   0.00   0.06
   3   6     0.00   0.00   0.10     0.24  -0.14   0.00     0.00   0.00  -0.06
   4   6     0.00   0.00  -0.01     0.00  -0.28   0.00     0.00   0.00   0.06
   5   6     0.00   0.00  -0.09    -0.24  -0.14   0.00     0.00   0.00  -0.06
   6   6     0.00   0.00   0.10    -0.24   0.14   0.00     0.00   0.00   0.06
   7   1     0.00   0.00   0.06     0.00   0.30   0.00     0.00   0.00   0.40
   8   1     0.00   0.00   0.46     0.26   0.15   0.00     0.00   0.00  -0.40
   9   1     0.00   0.00  -0.52     0.26  -0.15   0.00     0.00   0.00   0.40
  10   1     0.00   0.00   0.06     0.00  -0.30   0.00     0.00   0.00  -0.40
  11   1     0.00   0.00   0.46    -0.26  -0.15   0.00     0.00   0.00   0.40
  12   1     0.00   0.00  -0.52    -0.26   0.15   0.00     0.00   0.00  -0.40
                    13                     14                     15
                    B1U                    E1U                    E1U
 Frequencies --  1022.4767              1058.9035              1058.9035
 Red. masses --     6.5341                 1.7095                 1.7095
 Frc consts  --     4.0248                 1.1294                 1.1294
 IR Inten    --     0.0000                 6.3625                 6.3639
 Atom AN      X      Y      Z        X      Y      Z        X      Y      Z
   1   6     0.00   0.29   0.00     0.03   0.11   0.00    -0.08   0.04   0.00
   2   6    -0.25  -0.14   0.00     0.06  -0.06   0.00     0.09   0.07   0.00
   3   6     0.25  -0.14   0.00    -0.11   0.00   0.00     0.03  -0.09   0.00
   4   6     0.00   0.29   0.00     0.03   0.11   0.00    -0.08   0.04   0.00
   5   6    -0.25  -0.14   0.00     0.06  -0.06   0.00     0.09   0.07   0.00
   6   6     0.25  -0.14   0.00    -0.11   0.00   0.00     0.03  -0.09   0.00
   7   1     0.00   0.29   0.00     0.19   0.12   0.00    -0.51   0.04   0.00
   8   1    -0.25  -0.14   0.00     0.29  -0.45   0.00     0.06   0.14   0.00
   9   1     0.25  -0.14   0.00    -0.26  -0.25   0.00    -0.14  -0.40   0.00
  10   1     0.00   0.29   0.00     0.19   0.12   0.00    -0.51   0.04   0.00
  11   1    -0.25  -0.14   0.00     0.29  -0.45   0.00     0.06   0.14   0.00
  12   1     0.25  -0.14   0.00    -0.26  -0.25   0.00    -0.14  -0.40   0.00
                    16                     17                     18
                    B2U                    E2G                    E2G
 Frequencies --  1174.6884              1197.3350              1197.3350
 Red. masses --     1.0995                 1.1374                 1.1374
 Frc consts  --     0.8939                 0.9607                 0.9607
 IR Inten    --     0.0000                 0.0000                 0.0000
 Atom AN      X      Y      Z        X      Y      Z        X      Y      Z
   1   6     0.04   0.00   0.00     0.00   0.00   0.00     0.06   0.00   0.00
   2   6    -0.02   0.03   0.00     0.03  -0.05   0.00    -0.01   0.03   0.00
   3   6    -0.02  -0.03   0.00     0.03   0.05   0.00     0.01   0.03   0.00
   4   6     0.04   0.00   0.00     0.00   0.00   0.00    -0.06   0.00   0.00
   5   6    -0.02   0.03   0.00    -0.03   0.05   0.00     0.01  -0.03   0.00
   6   6    -0.02  -0.03   0.00    -0.03  -0.05   0.00    -0.01  -0.03   0.00
   7   1     0.41   0.00   0.00     0.00   0.00   0.00     0.57   0.00   0.00
   8   1    -0.20   0.35   0.00     0.25  -0.43   0.00    -0.14   0.25   0.00
   9   1    -0.20  -0.35   0.00     0.25   0.43   0.00     0.14   0.25   0.00
  10   1     0.41   0.00   0.00     0.00   0.00   0.00    -0.57   0.00   0.00
  11   1    -0.20   0.35   0.00    -0.25   0.43   0.00     0.14  -0.25   0.00
  12   1    -0.20  -0.35   0.00    -0.25  -0.43   0.00    -0.14  -0.25   0.00
                    19                     20                     21
                    B2U                    A2G                    E1U
 Frequencies --  1335.5375              1381.2893              1510.2291
 Red. masses --     6.0222                 1.2475                 2.0036
 Frc consts  --     6.3287                 1.4023                 2.6924
 IR Inten    --     0.0000                 0.0000                 7.1843
 Atom AN      X      Y      Z        X      Y      Z        X      Y      Z
   1   6     0.28   0.00   0.00    -0.06   0.00   0.00     0.04  -0.09   0.00
   2   6    -0.14   0.24   0.00    -0.03   0.05   0.00    -0.11   0.05   0.00
   3   6    -0.14  -0.24   0.00     0.03   0.05   0.00     0.09   0.11   0.00
   4   6     0.28   0.00   0.00     0.06   0.00   0.00     0.04  -0.09   0.00
   5   6    -0.14   0.24   0.00     0.03  -0.05   0.00    -0.11   0.05   0.00
   6   6    -0.14  -0.24   0.00    -0.03  -0.05   0.00     0.09   0.11   0.00
   7   1    -0.30   0.00   0.00     0.40   0.00   0.00    -0.16  -0.11   0.00
   8   1     0.15  -0.26   0.00     0.20  -0.35   0.00     0.11  -0.36   0.00
   9   1     0.15   0.26   0.00    -0.20  -0.35   0.00    -0.24  -0.47   0.00
  10   1    -0.30   0.00   0.00    -0.40   0.00   0.00    -0.16  -0.11   0.00
  11   1     0.15  -0.26   0.00    -0.20   0.35   0.00     0.11  -0.36   0.00
  12   1     0.15   0.26   0.00     0.20   0.35   0.00    -0.24  -0.47   0.00
                    22                     23                     24
                    E1U                    E2G                    E2G
 Frequencies --  1510.2291              1633.1670              1633.1670
 Red. masses --     2.0036                 5.3092                 5.3092
 Frc consts  --     2.6924                 8.3433                 8.3433
 IR Inten    --     7.1794                 0.0000                 0.0000
 Atom AN      X      Y      Z        X      Y      Z        X      Y      Z
   1   6    -0.14  -0.03   0.00     0.32   0.03   0.00    -0.08   0.15   0.00
   2   6     0.00   0.12   0.00    -0.17   0.01   0.00     0.12  -0.29   0.00
   3   6     0.06  -0.07   0.00     0.21   0.14   0.00     0.03   0.26   0.00
   4   6    -0.14  -0.03   0.00    -0.32  -0.03   0.00     0.08  -0.15   0.00
   5   6     0.00   0.12   0.00     0.17  -0.01   0.00    -0.12   0.29   0.00
   6   6     0.06  -0.07   0.00    -0.21  -0.14   0.00    -0.03  -0.26   0.00
   7   1     0.52  -0.03   0.00    -0.41   0.04   0.00     0.10   0.16   0.00
   8   1     0.26  -0.30   0.00    -0.08  -0.18   0.00    -0.24   0.32   0.00
   9   1     0.16   0.05   0.00    -0.04  -0.31   0.00    -0.25  -0.21   0.00
  10   1     0.52  -0.03   0.00     0.41  -0.04   0.00    -0.10  -0.16   0.00
  11   1     0.26  -0.30   0.00     0.08   0.18   0.00     0.24  -0.32   0.00
  12   1     0.16   0.05   0.00     0.04   0.31   0.00     0.25   0.21   0.00
                    25                     26                     27
                    B1U                    E2G                    E2G
 Frequencies --  3156.4491              3166.0772              3166.0772
 Red. masses --     1.0840                 1.0876                 1.0876
 Frc consts  --     6.3631                 6.4236                 6.4236
 IR Inten    --     0.0000                 0.0000                 0.0000
 Atom AN      X      Y      Z        X      Y      Z        X      Y      Z
   1   6     0.00  -0.03   0.00     0.00  -0.01   0.00     0.00  -0.05   0.00
   2   6     0.03   0.02   0.00    -0.03  -0.02   0.00     0.03   0.02   0.00
   3   6    -0.03   0.02   0.00     0.04  -0.02   0.00     0.01  -0.01   0.00
   4   6     0.00  -0.03   0.00     0.00   0.01   0.00     0.00   0.05   0.00
   5   6     0.03   0.02   0.00     0.03   0.02   0.00    -0.03  -0.02   0.00
   6   6    -0.03   0.02   0.00    -0.04   0.02   0.00    -0.01   0.01   0.00
   7   1     0.00   0.41   0.00     0.00   0.10   0.00     0.00   0.57   0.00
   8   1    -0.35  -0.20   0.00     0.38   0.22   0.00    -0.32  -0.19   0.00
   9   1     0.35  -0.20   0.00    -0.47   0.27   0.00    -0.17   0.10   0.00
  10   1     0.00   0.41   0.00     0.00  -0.10   0.00     0.00  -0.57   0.00
  11   1    -0.35  -0.20   0.00    -0.38  -0.22   0.00     0.32   0.19   0.00
  12   1     0.35  -0.20   0.00     0.47  -0.27   0.00     0.17  -0.10   0.00
                    28                     29                     30
                    E1U                    E1U                    A1G
 Frequencies --  3181.6717              3181.6717              3191.8548
 Red. masses --     1.0949                 1.0949                 1.0993
 Frc consts  --     6.5304                 6.5304                 6.5987
 IR Inten    --    37.5711                37.5738                 0.0000
 Atom AN      X      Y      Z        X      Y      Z        X      Y      Z
   1   6     0.00  -0.01   0.00     0.00   0.05   0.00     0.00  -0.04   0.00
   2   6     0.03   0.02   0.00     0.03   0.01   0.00    -0.03  -0.02   0.00
   3   6     0.04  -0.03   0.00    -0.02   0.01   0.00    -0.03   0.02   0.00
   4   6     0.00  -0.01   0.00     0.00   0.05   0.00     0.00   0.04   0.00
   5   6     0.03   0.02   0.00     0.03   0.01   0.00     0.03   0.02   0.00
   6   6     0.04  -0.03   0.00    -0.02   0.01   0.00     0.03  -0.02   0.00
   7   1     0.00   0.10   0.00     0.00  -0.57   0.00     0.00   0.41   0.00
   8   1    -0.38  -0.22   0.00    -0.32  -0.18   0.00     0.35   0.20   0.00
   9   1    -0.47   0.27   0.00     0.17  -0.09   0.00     0.35  -0.20   0.00
  10   1     0.00   0.10   0.00     0.00  -0.57   0.00     0.00  -0.41   0.00
  11   1    -0.38  -0.22   0.00    -0.32  -0.18   0.00    -0.35  -0.20   0.00
  12   1    -0.47   0.27   0.00     0.17  -0.09   0.00    -0.35   0.20   0.00

 -------------------
 - Thermochemistry -
 -------------------
 Temperature   298.150 Kelvin.  Pressure   1.00000 Atm.
 Atom  1 has atomic number  6 and mass  12.00000
 Atom  2 has atomic number  6 and mass  12.00000
 Atom  3 has atomic number  6 and mass  12.00000
 Atom  4 has atomic number  6 and mass  12.00000
 Atom  5 has atomic number  6 and mass  12.00000
 Atom  6 has atomic number  6 and mass  12.00000
 Atom  7 has atomic number  1 and mass   1.00783
 Atom  8 has atomic number  1 and mass   1.00783
 Atom  9 has atomic number  1 and mass   1.00783
 Atom 10 has atomic number  1 and mass   1.00783
 Atom 11 has atomic number  1 and mass   1.00783
 Atom 12 has atomic number  1 and mass   1.00783
 Molecular mass:    78.04695 amu.
 Principal axes and moments of inertia in atomic units:
                           1         2         3
     EIGENVALUES --   316.41971 316.41971 632.83942
           X            0.99970  -0.02430   0.00000
           Y            0.02430   0.99970   0.00000
           Z            0.00000   0.00000   1.00000
 This molecule is an oblate symmetric top.
 Rotational symmetry number 12.
 Rotational temperatures (Kelvin)      0.27373     0.27373     0.13687
 Rotational constants (GHZ):           5.70363     5.70363     2.85182
 Zero-point vibrational energy     262869.1 (Joules/Mol)
                                   62.82722 (Kcal/Mol)
 Warning -- explicit consideration of   2 degrees of freedom as
           vibrations may cause significant error
 Vibrational temperatures:    590.16   590.16   895.38   895.38   986.23
          (Kelvin)           1033.96  1239.56  1239.56  1418.89  1418.89
                             1454.04  1461.89  1471.11  1523.52  1523.52
                             1690.11  1722.70  1722.70  1921.54  1987.36
                             2172.88  2172.88  2349.76  2349.76  4541.42
                             4555.27  4555.27  4577.71  4577.71  4592.36
 
 Zero-point correction=                           0.100122 (Hartree/Particle)
 Thermal correction to Energy=                    0.104524
 Thermal correction to Enthalpy=                  0.105468
 Thermal correction to Gibbs Free Energy=         0.075002
 Sum of electronic and zero-point Energies=           -232.211121
 Sum of electronic and thermal Energies=              -232.206719
 Sum of electronic and thermal Enthalpies=            -232.205775
 Sum of electronic and thermal Free Energies=         -232.236241
 
                     E (Thermal)             CV                S
                      KCal/Mol        Cal/Mol-Kelvin    Cal/Mol-Kelvin
 Total                   65.589             17.204             64.121
 Electronic               0.000              0.000              0.000
 Translational            0.889              2.981             38.979
 Rotational               0.889              2.981             20.714
 Vibrational             63.812             11.243              4.428
 Vibration  1             0.774              1.448              0.926
 Vibration  2             0.774              1.448              0.926
                       Q            Log10(Q)             Ln(Q)
 Total Bot       0.317498D-34        -34.498259        -79.435176
 Total V=0       0.358395D+12         11.554362         26.604901
 Vib (Bot)       0.156019D-45        -45.806823       -105.474108
 Vib (Bot)  1    0.431269D+00         -0.365252         -0.841023
 Vib (Bot)  2    0.431269D+00         -0.365252         -0.841023
 Vib (V=0)       0.176115D+01          0.245797          0.565969
 Vib (V=0)  1    0.116030D+01          0.064569          0.148676
 Vib (V=0)  2    0.116030D+01          0.064569          0.148676
 Electronic      0.100000D+01          0.000000          0.000000
 Translational   0.271012D+08          7.432989         17.115090
 Rotational      0.750888D+04          3.875575          8.923842
 ***** Axes restored to original set *****
 -------------------------------------------------------------------
 Center     Atomic                   Forces (Hartrees/Bohr)
 Number     Number              X              Y              Z
 -------------------------------------------------------------------
    1          6           0.000023476    0.000000000    0.000013554
    2          6           0.000023476    0.000000000   -0.000013554
    3          6           0.000000000    0.000000000   -0.000027108
    4          6          -0.000023476    0.000000000   -0.000013554
    5          6          -0.000023476    0.000000000    0.000013554
    6          6           0.000000000    0.000000000    0.000027108
    7          1           0.000001751    0.000000000    0.000001011
    8          1           0.000001751    0.000000000   -0.000001011
    9          1           0.000000000    0.000000000   -0.000002022
   10          1          -0.000001751    0.000000000   -0.000001011
   11          1          -0.000001751    0.000000000    0.000001011
   12          1           0.000000000    0.000000000    0.000002022
 -------------------------------------------------------------------
 Cartesian Forces:  Max     0.000027108 RMS     0.000011097
 ------------------------------------------------------------------------
           Internal Coordinate Forces (Hartree/Bohr or radian)
 Cent Atom N1     Length/X     N2     Alpha/Y      N3      Beta/Z       J
 ------------------------------------------------------------------------
   1  C 
   2  C     1  -0.000015(   1)
   3  C     2  -0.000044(   2)  1  -0.000066(  12)
   4  C     3  -0.000058(   3)  2  -0.000133(  13)  1   0.000000(  22)  0
   5  C     4  -0.000044(   4)  3  -0.000133(  14)  2   0.000000(  23)  0
   6  C     5  -0.000015(   5)  4  -0.000066(  15)  3   0.000000(  24)  0
   7  H     1  -0.000002(   6)  2   0.000000(  16)  3   0.000000(  25)  0
   8  H     2  -0.000002(   7)  3   0.000000(  17)  4   0.000000(  26)  0
   9  H     3  -0.000002(   8)  4   0.000000(  18)  5   0.000000(  27)  0
  10  H     4  -0.000002(   9)  5   0.000000(  19)  6   0.000000(  28)  0
  11  H     5  -0.000002(  10)  6   0.000000(  20)  1   0.000000(  29)  0
  12  H     6  -0.000002(  11)  1   0.000000(  21)  2   0.000000(  30)  0
 ------------------------------------------------------------------------
 Internal  Forces:  Max     0.000132977 RMS     0.000041581

 GradGradGradGradGradGradGradGradGradGradGradGradGradGradGradGradGradGrad
 Berny optimization.
 Search for a local minimum.
 Step number   1 out of a maximum of   2
 All quantities printed in internal units (Hartrees-Bohrs-Radians)
 Second derivative matrix not updated -- analytic derivatives used.
 The second derivative matrix:
                          cc        ch         d         a
           cc           3.03231
           ch           0.06043   2.14079
           d            0.00000   0.00000   0.31239
           a            6.92118   0.13793   0.00000  84.91491
     Eigenvalues ---    2.13671   3.036381000.000001000.00000
 Angle between quadratic step and forces=   0.05 degrees.
 Linear search not attempted -- first point.
 Variable       Old X    -DE/DX   Delta X   Delta X   Delta X     New X
                                 (Linear)    (Quad)   (Total)
    cc        2.63556  -0.00017   0.00000  -0.00006  -0.00006   2.63550
    ch        2.04926  -0.00001   0.00000   0.00000   0.00000   2.04925
    d         3.14159   0.00000   0.00000   0.00000   0.00000   3.14159
    a         2.09440  -0.00040   0.00000   0.00000   0.00000   2.09440
         Item               Value     Threshold  Converged?
 Maximum Force            0.000175     0.000450     YES
 RMS     Force            0.000124     0.000300     YES
 Maximum Displacement     0.000058     0.001800     YES
 RMS     Displacement     0.000029     0.001200     YES
 Predicted change in Energy=-5.054620D-09
 Optimization completed.
    -- Stationary point found.
                       ----------------------------
                       !   Optimized Parameters   !
                       ! (Angstroms and Degrees)  !
 ----------------------                            ----------------------
 !      Name          Value   Derivative information (Atomic Units)     !
 ------------------------------------------------------------------------
 !       cc          1.3947   -DE/DX =   -0.0002                        !
 !       ch          1.0844   -DE/DX =    0.0                           !
 !        d        180.0      -DE/DX =    0.0                           !
 !        a        120.0      -DE/DX =   -0.0004                        !
 ------------------------------------------------------------------------
 GradGradGradGradGradGradGradGradGradGradGradGradGradGradGradGradGradGrad

 1\1\GINC-CLUSTER-BIO\Freq\RB3LYP\6-311+G(d,p)\C6H6\CHAQUIN\20-Mar-2012
 \1\\# B3LYP 6-311+G** GEOM=CHECKPOINT FREQ POP=NONE\\*** C6H6 freq ***
 *\\0,1\C\C,1,cc\C,2,cc,1,a\C,3,cc,2,a,1,0.,0\C,4,cc,3,a,2,0.,0\C,5,cc,
 4,a,3,0.,0\H,1,ch,2,a,3,d,0\H,2,ch,3,a,4,d,0\H,3,ch,4,a,5,d,0\H,4,ch,5
 ,a,6,d,0\H,5,ch,6,a,1,d,0\H,6,ch,1,a,2,d,0\\cc=1.39467741\ch=1.0844194
 2\d=180.\a=120.\\Version=AM64L-G03RevC.02\State=1-A1G\HF=-232.3112424\
 RMSD=2.050e-09\RMSF=1.110e-05\Dipole=0.,0.,0.\DipoleDeriv=0.0577741,0.
 ,0.0634723,0.,-0.1408787,0.,0.0634723,0.,-0.0155174,0.0577511,0.,-0.06
 34983,0.,-0.1408861,0.,-0.0635055,0.,-0.0156301,-0.052279,0.,0.0000205
 ,0.,-0.1408861,0.,0.0000277,0.,0.0944,0.0577741,0.,0.0634723,0.,-0.140
 8786,0.,0.0634723,0.,-0.0155174,0.0577511,0.,-0.0634983,0.,-0.1408861,
 0.,-0.0635055,0.,-0.0156301,-0.052279,0.,0.0000205,0.,-0.1408861,0.,0.
 0000277,0.,0.0944,-0.0654076,0.,-0.0768562,0.,0.1408855,0.,-0.0768562,
 0.,0.0233383,-0.065409,0.,0.0768542,0.,0.1408878,0.,0.0768644,0.,0.023
 3349,0.067711,0.,0.0000075,0.,0.1408878,0.,-0.0000027,0.,-0.1097851,-0
 .0654076,0.,-0.0768562,0.,0.1408855,0.,-0.0768562,0.,0.0233383,-0.0654
 09,0.,0.0768542,0.,0.1408878,0.,0.0768644,0.,0.0233349,0.067711,0.,0.0
 000075,0.,0.1408878,0.,-0.0000027,0.,-0.1097851\Polar=78.491515,0.,41.
 5547152,-0.0018174,0.,78.4936135\PG=D06H [3C2'(H1C1.C1H1)]\NImag=0\\0.
 71489370,0.,0.13549464,0.03512870,0.,0.67433056,-0.12874270,0.,0.03204
 725,0.71489370,0.,-0.06378064,0.,0.,0.13549464,-0.03204725,0.,-0.32985
 944,-0.03512870,0.,0.67433056,0.03403745,0.,-0.07649697,-0.27958025,0.
 ,-0.05503885,0.65404900,0.,0.00790018,0.,0.,-0.06378064,0.,0.,0.135494
 64,-0.02961795,0.,-0.02722804,-0.11913336,0.,-0.17902188,0.,0.,0.73517
 527,-0.01803829,0.,0.02948812,-0.05786078,0.,-0.02343951,-0.27958025,0
 .,0.11913336,0.71489370,0.,-0.00720008,0.,0.,0.00790018,0.,0.,-0.06378
 064,0.,0.,0.13549464,0.02948812,0.,-0.05208824,0.02343951,0.,0.0646701
 9,0.05503885,0.,-0.17902188,0.03512870,0.,0.67433056,-0.05786078,0.,0.
 02343951,-0.01803829,0.,-0.02948812,0.03403745,0.,0.02961795,-0.128742
 70,0.,0.03204725,0.71489370,0.,0.00790018,0.,0.,-0.00720008,0.,0.,0.00
 790018,0.,0.,-0.06378064,0.,0.,0.13549464,-0.02343951,0.,0.06467019,-0
 .02948812,0.,-0.05208824,0.07649697,0.,-0.02722804,-0.03204725,0.,-0.3
 2985944,-0.03512870,0.,0.67433056,-0.27958025,0.,0.05503885,0.03403745
 ,0.,0.07649697,-0.06911321,0.,0.,0.03403745,0.,-0.07649697,-0.27958025
 ,0.,-0.05503885,0.65404900,0.,-0.06378064,0.,0.,0.00790018,0.,0.,-0.00
 720008,0.,0.,0.00790018,0.,0.,-0.06378064,0.,0.,0.13549464,0.11913336,
 0.,-0.17902188,0.02961795,0.,-0.02722804,0.,0.,-0.00101331,-0.02961795
 ,0.,-0.02722804,-0.11913336,0.,-0.17902188,0.,0.,0.73517527,-0.2655492
 3,0.,-0.11917640,0.00355361,0.,0.00226197,0.00187602,0.,0.00045501,0.0
 0023225,0.,0.00085319,-0.00298708,0.,0.00411326,-0.01861732,0.,-0.0162
 2086,0.28081789,0.,-0.03681026,0.,0.,0.00334005,0.,0.,0.00724073,0.,0.
 ,-0.00088408,0.,0.,0.00724073,0.,0.,0.00334005,0.,0.,0.02539287,-0.119
 17640,0.,-0.12793618,-0.02902125,0.,-0.01055815,0.00130556,0.,-0.00562
 457,0.00085319,0.,-0.00075293,0.00326272,0.,-0.00076148,0.01506236,0.,
 0.01161278,0.12851594,0.,0.13242046,0.00355361,0.,-0.00226197,-0.26554
 923,0.,0.11917640,-0.01861732,0.,0.01622086,-0.00298708,0.,-0.00411326
 ,0.00023225,0.,-0.00085319,0.00187602,0.,-0.00045501,0.00075650,0.,0.0
 0042385,0.28081789,0.,0.00334005,0.,0.,-0.03681026,0.,0.,0.00334005,0.
 ,0.,0.00724073,0.,0.,-0.00088408,0.,0.,0.00724073,0.,0.,-0.00403495,0.
 ,0.,0.02539287,0.02902125,0.,-0.01055815,0.11917640,0.,-0.12793618,-0.
 01506236,0.,0.01161278,-0.00326272,0.,-0.00076148,-0.00085319,0.,-0.00
 075293,-0.00130556,0.,-0.00562457,-0.00042385,0.,0.00100882,-0.1285159
 4,0.,0.13242046,-0.00451177,0.,-0.00238243,0.00455690,0.,-0.02844200,-
 0.05912965,0.,0.,0.00455690,0.,0.02844200,-0.00451177,0.,0.00238243,-0
 .00124551,0.,0.,0.00002257,0.,-0.00140145,0.00094574,0.,0.00053311,0.0
 5822175,0.,0.00724073,0.,0.,0.00334005,0.,0.,-0.03681026,0.,0.,0.00334
 005,0.,0.,0.00724073,0.,0.,-0.00088408,0.,0.,0.00019838,0.,0.,-0.00403
 495,0.,0.,0.02539287,-0.00323298,0.,0.00076322,0.00284122,0.,-0.011561
 44,0.,0.,-0.33435575,-0.00284122,0.,-0.01156144,0.00323298,0.,0.000763
 22,0.,0.,0.00072484,0.00019535,0.,-0.00067378,-0.00031459,0.,0.0008195
 8,0.,0.,0.35501660,0.00023225,0.,0.00085319,-0.00298708,0.,0.00411326,
 -0.01861732,0.,-0.01622086,-0.26554923,0.,-0.11917640,0.00355361,0.,0.
 00226197,0.00187602,0.,0.00045501,-0.00002945,0.,-0.00009059,-0.001021
 95,0.,-0.00079840,0.00094574,0.,0.00031459,0.28081789,0.,-0.00088408,0
 .,0.,0.00724073,0.,0.,0.00334005,0.,0.,-0.03681026,0.,0.,0.00334005,0.
 ,0.,0.00724073,0.,0.,-0.00118781,0.,0.,0.00019838,0.,0.,-0.00403495,0.
 ,0.,0.02539287,0.00085319,0.,-0.00075293,0.00326272,0.,-0.00076148,0.0
 1506236,0.,0.01161278,-0.11917640,0.,-0.12793618,-0.02902125,0.,-0.010
 55815,0.00130556,0.,-0.00562457,-0.00009059,0.,0.00007516,0.00079840,0
 .,0.00037074,-0.00053311,0.,0.00081958,0.12851594,0.,0.13242046,-0.002
 98708,0.,-0.00411326,0.00023225,0.,-0.00085319,0.00187602,0.,-0.000455
 01,0.00355361,0.,-0.00226197,-0.26554923,0.,0.11917640,-0.01861732,0.,
 0.01622086,-0.00102195,0.,0.00079840,-0.00002945,0.,0.00009059,0.00002
 257,0.,-0.00019535,0.00075650,0.,0.00042385,0.28081789,0.,0.00724073,0
 .,0.,-0.00088408,0.,0.,0.00724073,0.,0.,0.00334005,0.,0.,-0.03681026,0
 .,0.,0.00334005,0.,0.,0.00019838,0.,0.,-0.00118781,0.,0.,0.00019838,0.
 ,0.,-0.00403495,0.,0.,0.02539287,-0.00326272,0.,-0.00076148,-0.0008531
 9,0.,-0.00075293,-0.00130556,0.,-0.00562457,0.02902125,0.,-0.01055815,
 0.11917640,0.,-0.12793618,-0.01506236,0.,0.01161278,-0.00079840,0.,0.0
 0037074,0.00009059,0.,0.00007516,0.00140145,0.,-0.00067378,-0.00042385
 ,0.,0.00100882,-0.12851594,0.,0.13242046,0.00455690,0.,0.02844200,-0.0
 0451177,0.,0.00238243,-0.00124551,0.,0.,-0.00451177,0.,-0.00238243,0.0
 0455690,0.,-0.02844200,-0.05912965,0.,0.,0.00094574,0.,-0.00053311,0.0
 0002257,0.,0.00140145,0.00012746,0.,0.,0.00002257,0.,-0.00140145,0.000
 94574,0.,0.00053311,0.05822175,0.,0.00334005,0.,0.,0.00724073,0.,0.,-0
 .00088408,0.,0.,0.00724073,0.,0.,0.00334005,0.,0.,-0.03681026,0.,0.,-0
 .00403495,0.,0.,0.00019838,0.,0.,-0.00118781,0.,0.,0.00019838,0.,0.,-0
 .00403495,0.,0.,0.02539287,-0.00284122,0.,-0.01156144,0.00323298,0.,0.
 00076322,0.,0.,0.00072484,-0.00323298,0.,0.00076322,0.00284122,0.,-0.0
 1156144,0.,0.,-0.33435575,0.00031459,0.,0.00081958,-0.00019535,0.,-0.0
 0067378,0.,0.,-0.00008175,0.00019535,0.,-0.00067378,-0.00031459,0.,0.0
 0081958,0.,0.,0.35501660\\-0.00002348,0.,-0.00001355,-0.00002348,0.,0.
 00001355,0.,0.,0.00002711,0.00002348,0.,0.00001355,0.00002348,0.,-0.00
 001355,0.,0.,-0.00002711,-0.00000175,0.,-0.00000101,-0.00000175,0.,0.0
 0000101,0.,0.,0.00000202,0.00000175,0.,0.00000101,0.00000175,0.,-0.000
 00101,0.,0.,-0.00000202\\\@


 ALL MY ATTEMPTS TO ADAPT THE THEORETICAL FOUNDATIONS OF PHYSICS
 TO THESE NEW NOTIONS FAILED COMPLETELY. IT WAS AS IF THE GROUND HAD
 BEEN PULLED OUT FROM UNDER ONE WITH NO FIRM FOUNDATION TO BE SEEN ANYWHERE,
 UPON WHICH ONE COULD HAVE BUILT.  -- A.EINSTEIN
 Job cpu time:  0 days  0 hours  6 minutes 44.2 seconds.
 File lengths (MBytes):  RWF=     30 Int=      0 D2E=      0 Chk=     15 Scr=      1
 Normal termination of Gaussian 03 at Tue Mar 20 14:58:34 2012.
453.68user 4.24system 7:40.38elapsed 99%CPU (0avgtext+0avgdata 0maxresident)k
0inputs+0outputs (590major+1472977minor)pagefaults 0swaps
