[Molden Format]
[Atoms] Angs
 C     1  6    -1.207826     0.000000    -0.697339
 C     2  6    -1.207826     0.000000     0.697339
 C     3  6     0.000000     0.000000     1.394677
 C     4  6     1.207826     0.000000     0.697339
 C     5  6     1.207826     0.000000    -0.697339
 C     6  6     0.000000     0.000000    -1.394677
 H     7  1    -2.146961     0.000000    -1.239548
 H     8  1    -2.146961     0.000000     1.239548
 H     9  1     0.000000     0.000000     2.479097
 H    10  1     2.146961     0.000000     1.239548
 H    11  1     2.146961     0.000000    -1.239548
 H    12  1     0.000000     0.000000    -2.479097
[FREQ]
  410.1809
  410.1809
  622.3206
  622.3206
  685.4676
  718.6374
  861.5384
  861.5384
  986.1796
  986.1796
 1010.6071
 1016.0671
 1022.4767
 1058.9035
 1058.9035
 1174.6884
 1197.3350
 1197.3350
 1335.5375
 1381.2893
 1510.2291
 1510.2291
 1633.1670
 1633.1670
 3156.4491
 3166.0772
 3166.0772
 3181.6717
 3181.6717
 3191.8548
[INT]
    0.0000
    0.0000
    0.0000
    0.0000
  124.8767
    0.0000
    0.0000
    0.0000
    0.0000
    0.0000
    0.0000
    0.0000
    0.0000
    6.3625
    6.3639
    0.0000
    0.0000
    0.0000
    0.0000
    0.0000
    7.1843
    7.1794
    0.0000
    0.0000
    0.0000
    0.0000
    0.0000
   37.5711
   37.5738
    0.0000
[FR-COORD]
 C    -2.282460     0.000000    -1.317780
 C    -2.282460     0.000000     1.317780
 C     0.000000     0.000000     2.635557
 C     2.282460     0.000000     1.317780
 C     2.282460     0.000000    -1.317780
 C     0.000000     0.000000    -2.635557
 H    -4.057168     0.000000    -2.342406
 H    -4.057168     0.000000     2.342406
 H     0.000000     0.000000     4.684814
 H     4.057168     0.000000     2.342406
 H     4.057168     0.000000    -2.342406
 H     0.000000     0.000000    -4.684814
[FR-NORM-COORD]
vibration     1
    0.000000     0.000000     0.240000
    0.000000     0.000000    -0.110000
    0.000000     0.000000    -0.120000
    0.000000     0.000000     0.240000
    0.000000     0.000000    -0.110000
    0.000000     0.000000    -0.120000
    0.000000     0.000000     0.530000
    0.000000     0.000000    -0.250000
    0.000000     0.000000    -0.280000
    0.000000     0.000000     0.530000
    0.000000     0.000000    -0.250000
    0.000000     0.000000    -0.280000
vibration     2
    0.000000     0.000000    -0.010000
    0.000000     0.000000     0.210000
    0.000000     0.000000    -0.200000
    0.000000     0.000000    -0.010000
    0.000000     0.000000     0.210000
    0.000000     0.000000    -0.200000
    0.000000     0.000000    -0.020000
    0.000000     0.000000     0.460000
    0.000000     0.000000    -0.450000
    0.000000     0.000000    -0.020000
    0.000000     0.000000     0.460000
    0.000000     0.000000    -0.450000
vibration     3
    0.150000    -0.060000     0.000000
    0.270000     0.220000     0.000000
   -0.190000     0.220000     0.000000
   -0.150000     0.060000     0.000000
   -0.270000    -0.220000     0.000000
    0.190000    -0.220000     0.000000
   -0.220000    -0.060000     0.000000
    0.330000     0.100000     0.000000
   -0.310000     0.010000     0.000000
    0.220000     0.060000     0.000000
   -0.330000    -0.100000     0.000000
    0.310000    -0.010000     0.000000
vibration     4
    0.030000     0.350000     0.000000
   -0.180000     0.070000     0.000000
   -0.260000     0.010000     0.000000
   -0.030000    -0.350000     0.000000
    0.180000    -0.070000     0.000000
    0.260000    -0.010000     0.000000
   -0.040000     0.350000     0.000000
    0.000000    -0.240000     0.000000
   -0.120000     0.260000     0.000000
    0.040000    -0.350000     0.000000
    0.000000     0.240000     0.000000
    0.120000    -0.260000     0.000000
vibration     5
    0.000000     0.000000     0.030000
    0.000000     0.000000     0.030000
    0.000000     0.000000     0.030000
    0.000000     0.000000     0.030000
    0.000000     0.000000     0.030000
    0.000000     0.000000     0.030000
    0.000000     0.000000    -0.410000
    0.000000     0.000000    -0.410000
    0.000000     0.000000    -0.410000
    0.000000     0.000000    -0.410000
    0.000000     0.000000    -0.410000
    0.000000     0.000000    -0.410000
vibration     6
    0.000000     0.000000     0.200000
    0.000000     0.000000    -0.200000
    0.000000     0.000000     0.200000
    0.000000     0.000000    -0.200000
    0.000000     0.000000     0.200000
    0.000000     0.000000    -0.200000
    0.000000     0.000000     0.360000
    0.000000     0.000000    -0.360000
    0.000000     0.000000     0.360000
    0.000000     0.000000    -0.360000
    0.000000     0.000000     0.360000
    0.000000     0.000000    -0.360000
vibration     7
    0.000000     0.000000    -0.080000
    0.000000     0.000000    -0.050000
    0.000000     0.000000     0.030000
    0.000000     0.000000     0.080000
    0.000000     0.000000     0.050000
    0.000000     0.000000    -0.030000
    0.000000     0.000000     0.560000
    0.000000     0.000000     0.360000
    0.000000     0.000000    -0.210000
    0.000000     0.000000    -0.560000
    0.000000     0.000000    -0.360000
    0.000000     0.000000     0.210000
vibration     8
    0.000000     0.000000    -0.010000
    0.000000     0.000000     0.070000
    0.000000     0.000000     0.080000
    0.000000     0.000000     0.010000
    0.000000     0.000000    -0.070000
    0.000000     0.000000    -0.080000
    0.000000     0.000000     0.090000
    0.000000     0.000000    -0.450000
    0.000000     0.000000    -0.530000
    0.000000     0.000000    -0.090000
    0.000000     0.000000     0.450000
    0.000000     0.000000     0.530000
vibration     9
    0.000000     0.000000    -0.110000
    0.000000     0.000000     0.060000
    0.000000     0.000000     0.040000
    0.000000     0.000000    -0.110000
    0.000000     0.000000     0.060000
    0.000000     0.000000     0.040000
    0.000000     0.000000     0.560000
    0.000000     0.000000    -0.330000
    0.000000     0.000000    -0.230000
    0.000000     0.000000     0.560000
    0.000000     0.000000    -0.330000
    0.000000     0.000000    -0.230000
vibration    10
    0.000000     0.000000    -0.010000
    0.000000     0.000000    -0.090000
    0.000000     0.000000     0.100000
    0.000000     0.000000    -0.010000
    0.000000     0.000000    -0.090000
    0.000000     0.000000     0.100000
    0.000000     0.000000     0.060000
    0.000000     0.000000     0.460000
    0.000000     0.000000    -0.520000
    0.000000     0.000000     0.060000
    0.000000     0.000000     0.460000
    0.000000     0.000000    -0.520000
vibration    11
    0.000000     0.280000     0.000000
    0.240000     0.140000     0.000000
    0.240000    -0.140000     0.000000
    0.000000    -0.280000     0.000000
   -0.240000    -0.140000     0.000000
   -0.240000     0.140000     0.000000
    0.000000     0.300000     0.000000
    0.260000     0.150000     0.000000
    0.260000    -0.150000     0.000000
    0.000000    -0.300000     0.000000
   -0.260000    -0.150000     0.000000
   -0.260000     0.150000     0.000000
vibration    12
    0.000000     0.000000    -0.060000
    0.000000     0.000000     0.060000
    0.000000     0.000000    -0.060000
    0.000000     0.000000     0.060000
    0.000000     0.000000    -0.060000
    0.000000     0.000000     0.060000
    0.000000     0.000000     0.400000
    0.000000     0.000000    -0.400000
    0.000000     0.000000     0.400000
    0.000000     0.000000    -0.400000
    0.000000     0.000000     0.400000
    0.000000     0.000000    -0.400000
vibration    13
    0.000000     0.290000     0.000000
   -0.250000    -0.140000     0.000000
    0.250000    -0.140000     0.000000
    0.000000     0.290000     0.000000
   -0.250000    -0.140000     0.000000
    0.250000    -0.140000     0.000000
    0.000000     0.290000     0.000000
   -0.250000    -0.140000     0.000000
    0.250000    -0.140000     0.000000
    0.000000     0.290000     0.000000
   -0.250000    -0.140000     0.000000
    0.250000    -0.140000     0.000000
vibration    14
    0.030000     0.110000     0.000000
    0.060000    -0.060000     0.000000
   -0.110000     0.000000     0.000000
    0.030000     0.110000     0.000000
    0.060000    -0.060000     0.000000
   -0.110000     0.000000     0.000000
    0.190000     0.120000     0.000000
    0.290000    -0.450000     0.000000
   -0.260000    -0.250000     0.000000
    0.190000     0.120000     0.000000
    0.290000    -0.450000     0.000000
   -0.260000    -0.250000     0.000000
vibration    15
   -0.080000     0.040000     0.000000
    0.090000     0.070000     0.000000
    0.030000    -0.090000     0.000000
   -0.080000     0.040000     0.000000
    0.090000     0.070000     0.000000
    0.030000    -0.090000     0.000000
   -0.510000     0.040000     0.000000
    0.060000     0.140000     0.000000
   -0.140000    -0.400000     0.000000
   -0.510000     0.040000     0.000000
    0.060000     0.140000     0.000000
   -0.140000    -0.400000     0.000000
vibration    16
    0.040000     0.000000     0.000000
   -0.020000     0.030000     0.000000
   -0.020000    -0.030000     0.000000
    0.040000     0.000000     0.000000
   -0.020000     0.030000     0.000000
   -0.020000    -0.030000     0.000000
    0.410000     0.000000     0.000000
   -0.200000     0.350000     0.000000
   -0.200000    -0.350000     0.000000
    0.410000     0.000000     0.000000
   -0.200000     0.350000     0.000000
   -0.200000    -0.350000     0.000000
vibration    17
    0.000000     0.000000     0.000000
    0.030000    -0.050000     0.000000
    0.030000     0.050000     0.000000
    0.000000     0.000000     0.000000
   -0.030000     0.050000     0.000000
   -0.030000    -0.050000     0.000000
    0.000000     0.000000     0.000000
    0.250000    -0.430000     0.000000
    0.250000     0.430000     0.000000
    0.000000     0.000000     0.000000
   -0.250000     0.430000     0.000000
   -0.250000    -0.430000     0.000000
vibration    18
    0.060000     0.000000     0.000000
   -0.010000     0.030000     0.000000
    0.010000     0.030000     0.000000
   -0.060000     0.000000     0.000000
    0.010000    -0.030000     0.000000
   -0.010000    -0.030000     0.000000
    0.570000     0.000000     0.000000
   -0.140000     0.250000     0.000000
    0.140000     0.250000     0.000000
   -0.570000     0.000000     0.000000
    0.140000    -0.250000     0.000000
   -0.140000    -0.250000     0.000000
vibration    19
    0.280000     0.000000     0.000000
   -0.140000     0.240000     0.000000
   -0.140000    -0.240000     0.000000
    0.280000     0.000000     0.000000
   -0.140000     0.240000     0.000000
   -0.140000    -0.240000     0.000000
   -0.300000     0.000000     0.000000
    0.150000    -0.260000     0.000000
    0.150000     0.260000     0.000000
   -0.300000     0.000000     0.000000
    0.150000    -0.260000     0.000000
    0.150000     0.260000     0.000000
vibration    20
   -0.060000     0.000000     0.000000
   -0.030000     0.050000     0.000000
    0.030000     0.050000     0.000000
    0.060000     0.000000     0.000000
    0.030000    -0.050000     0.000000
   -0.030000    -0.050000     0.000000
    0.400000     0.000000     0.000000
    0.200000    -0.350000     0.000000
   -0.200000    -0.350000     0.000000
   -0.400000     0.000000     0.000000
   -0.200000     0.350000     0.000000
    0.200000     0.350000     0.000000
vibration    21
    0.040000    -0.090000     0.000000
   -0.110000     0.050000     0.000000
    0.090000     0.110000     0.000000
    0.040000    -0.090000     0.000000
   -0.110000     0.050000     0.000000
    0.090000     0.110000     0.000000
   -0.160000    -0.110000     0.000000
    0.110000    -0.360000     0.000000
   -0.240000    -0.470000     0.000000
   -0.160000    -0.110000     0.000000
    0.110000    -0.360000     0.000000
   -0.240000    -0.470000     0.000000
vibration    22
   -0.140000    -0.030000     0.000000
    0.000000     0.120000     0.000000
    0.060000    -0.070000     0.000000
   -0.140000    -0.030000     0.000000
    0.000000     0.120000     0.000000
    0.060000    -0.070000     0.000000
    0.520000    -0.030000     0.000000
    0.260000    -0.300000     0.000000
    0.160000     0.050000     0.000000
    0.520000    -0.030000     0.000000
    0.260000    -0.300000     0.000000
    0.160000     0.050000     0.000000
vibration    23
    0.320000     0.030000     0.000000
   -0.170000     0.010000     0.000000
    0.210000     0.140000     0.000000
   -0.320000    -0.030000     0.000000
    0.170000    -0.010000     0.000000
   -0.210000    -0.140000     0.000000
   -0.410000     0.040000     0.000000
   -0.080000    -0.180000     0.000000
   -0.040000    -0.310000     0.000000
    0.410000    -0.040000     0.000000
    0.080000     0.180000     0.000000
    0.040000     0.310000     0.000000
vibration    24
   -0.080000     0.150000     0.000000
    0.120000    -0.290000     0.000000
    0.030000     0.260000     0.000000
    0.080000    -0.150000     0.000000
   -0.120000     0.290000     0.000000
   -0.030000    -0.260000     0.000000
    0.100000     0.160000     0.000000
   -0.240000     0.320000     0.000000
   -0.250000    -0.210000     0.000000
   -0.100000    -0.160000     0.000000
    0.240000    -0.320000     0.000000
    0.250000     0.210000     0.000000
vibration    25
    0.000000    -0.030000     0.000000
    0.030000     0.020000     0.000000
   -0.030000     0.020000     0.000000
    0.000000    -0.030000     0.000000
    0.030000     0.020000     0.000000
   -0.030000     0.020000     0.000000
    0.000000     0.410000     0.000000
   -0.350000    -0.200000     0.000000
    0.350000    -0.200000     0.000000
    0.000000     0.410000     0.000000
   -0.350000    -0.200000     0.000000
    0.350000    -0.200000     0.000000
vibration    26
    0.000000    -0.010000     0.000000
   -0.030000    -0.020000     0.000000
    0.040000    -0.020000     0.000000
    0.000000     0.010000     0.000000
    0.030000     0.020000     0.000000
   -0.040000     0.020000     0.000000
    0.000000     0.100000     0.000000
    0.380000     0.220000     0.000000
   -0.470000     0.270000     0.000000
    0.000000    -0.100000     0.000000
   -0.380000    -0.220000     0.000000
    0.470000    -0.270000     0.000000
vibration    27
    0.000000    -0.050000     0.000000
    0.030000     0.020000     0.000000
    0.010000    -0.010000     0.000000
    0.000000     0.050000     0.000000
   -0.030000    -0.020000     0.000000
   -0.010000     0.010000     0.000000
    0.000000     0.570000     0.000000
   -0.320000    -0.190000     0.000000
   -0.170000     0.100000     0.000000
    0.000000    -0.570000     0.000000
    0.320000     0.190000     0.000000
    0.170000    -0.100000     0.000000
vibration    28
    0.000000    -0.010000     0.000000
    0.030000     0.020000     0.000000
    0.040000    -0.030000     0.000000
    0.000000    -0.010000     0.000000
    0.030000     0.020000     0.000000
    0.040000    -0.030000     0.000000
    0.000000     0.100000     0.000000
   -0.380000    -0.220000     0.000000
   -0.470000     0.270000     0.000000
    0.000000     0.100000     0.000000
   -0.380000    -0.220000     0.000000
   -0.470000     0.270000     0.000000
vibration    29
    0.000000     0.050000     0.000000
    0.030000     0.010000     0.000000
   -0.020000     0.010000     0.000000
    0.000000     0.050000     0.000000
    0.030000     0.010000     0.000000
   -0.020000     0.010000     0.000000
    0.000000    -0.570000     0.000000
   -0.320000    -0.180000     0.000000
    0.170000    -0.090000     0.000000
    0.000000    -0.570000     0.000000
   -0.320000    -0.180000     0.000000
    0.170000    -0.090000     0.000000
vibration    30
    0.000000    -0.040000     0.000000
   -0.030000    -0.020000     0.000000
   -0.030000     0.020000     0.000000
    0.000000     0.040000     0.000000
    0.030000     0.020000     0.000000
    0.030000    -0.020000     0.000000
    0.000000     0.410000     0.000000
    0.350000     0.200000     0.000000
    0.350000    -0.200000     0.000000
    0.000000    -0.410000     0.000000
   -0.350000    -0.200000     0.000000
   -0.350000     0.200000     0.000000
