[Molden Format]
[Atoms] Angs
 C     1  6     0.000000     0.000000    -1.751997
 C     2  6     0.000000     0.000000    -0.426841
 H     3  1     0.931876     0.000000    -2.300552
 H     4  1    -0.931876     0.000000    -2.300552
Cl     5 17    -1.464079     0.000000     0.519828
Cl     6 17     1.464079     0.000000     0.519828
[FREQ]
  301.4229
  381.7622
  476.3574
  594.3995
  688.0842
  762.1070
  895.6871
 1091.2256
 1402.6822
 1658.7984
 3165.6363
 3261.0660
[INT]
    0.0020
    0.1609
    7.6597
   17.1281
    0.0000
  114.8821
   54.1049
  107.9099
    0.2066
   89.0405
    2.3125
    0.0747
[FR-COORD]
 C     0.000000     0.000000    -3.310794
 C     0.000000     0.000000    -0.806613
 H     1.760990     0.000000    -4.347413
 H    -1.760990     0.000000    -4.347413
Cl    -2.766708     0.000000     0.982332
Cl     2.766708     0.000000     0.982332
[FR-NORM-COORD]
vibration     1
    0.000000     0.000000     0.380000
    0.000000     0.000000     0.360000
    0.000000     0.000000     0.370000
    0.000000     0.000000     0.370000
    0.000000     0.450000    -0.140000
    0.000000    -0.450000    -0.140000
vibration     2
    0.000000     0.300000     0.000000
    0.000000    -0.080000     0.000000
    0.000000     0.530000    -0.390000
    0.000000     0.530000     0.390000
    0.000000    -0.050000    -0.110000
    0.000000    -0.050000     0.110000
vibration     3
   -0.170000     0.000000     0.000000
    0.660000     0.000000     0.000000
   -0.510000     0.000000     0.000000
   -0.510000     0.000000     0.000000
   -0.070000     0.000000     0.000000
   -0.070000     0.000000     0.000000
vibration     4
    0.000000     0.000000     0.470000
    0.000000     0.000000     0.380000
    0.000000    -0.010000     0.500000
    0.000000     0.010000     0.500000
    0.000000    -0.180000    -0.160000
    0.000000     0.180000    -0.160000
vibration     5
    0.000000     0.000000     0.000000
    0.000000     0.000000     0.000000
    0.710000     0.000000     0.000000
   -0.710000     0.000000     0.000000
    0.010000     0.000000     0.000000
   -0.010000     0.000000     0.000000
vibration     6
    0.000000     0.120000     0.000000
    0.000000     0.390000     0.000000
    0.000000    -0.230000     0.600000
    0.000000    -0.230000    -0.600000
    0.000000    -0.080000    -0.050000
    0.000000    -0.080000     0.050000
vibration     7
    0.170000     0.000000     0.000000
   -0.050000     0.000000     0.000000
   -0.700000     0.000000     0.000000
   -0.700000     0.000000     0.000000
    0.000000     0.000000     0.000000
    0.000000     0.000000     0.000000
vibration     8
    0.000000     0.170000     0.000000
    0.000000    -0.220000     0.000000
    0.000000    -0.220000     0.640000
    0.000000    -0.220000    -0.640000
    0.000000     0.010000     0.000000
    0.000000     0.010000     0.000000
vibration     9
    0.000000     0.000000     0.000000
    0.000000     0.000000    -0.120000
    0.000000    -0.340000     0.610000
    0.000000     0.340000     0.610000
    0.000000     0.000000     0.000000
    0.000000     0.000000     0.000000
vibration    10
    0.000000     0.000000     0.450000
    0.000000     0.000000    -0.450000
    0.000000     0.480000    -0.260000
    0.000000    -0.480000    -0.260000
    0.000000     0.010000     0.010000
    0.000000    -0.010000     0.010000
vibration    11
    0.000000     0.000000    -0.070000
    0.000000     0.000000     0.010000
    0.000000     0.610000     0.350000
    0.000000    -0.610000     0.350000
    0.000000     0.000000     0.000000
    0.000000     0.000000     0.000000
vibration    12
    0.000000    -0.100000     0.000000
    0.000000     0.000000     0.000000
    0.000000     0.600000     0.360000
    0.000000     0.600000    -0.360000
    0.000000     0.000000     0.000000
    0.000000     0.000000     0.000000
