 Entering Gaussian System, Link 0=/usr/local/g03/g03
 Initial command:
 /usr/local/g03/l1.exe /home/chaquin/ENSEIGNEMENT/Gau-14745.inp -scrdir=/home/chaquin/ENSEIGNEMENT/
 Entering Link 1 = /usr/local/g03/l1.exe PID=     14749.
  
 Copyright (c) 1988,1990,1992,1993,1995,1998,2003,2004, Gaussian, Inc.
                  All Rights Reserved.
  
 This is the Gaussian(R) 03 program.  It is based on the
 the Gaussian(R) 98 system (copyright 1998, Gaussian, Inc.),
 the Gaussian(R) 94 system (copyright 1995, Gaussian, Inc.),
 the Gaussian 92(TM) system (copyright 1992, Gaussian, Inc.),
 the Gaussian 90(TM) system (copyright 1990, Gaussian, Inc.),
 the Gaussian 88(TM) system (copyright 1988, Gaussian, Inc.),
 the Gaussian 86(TM) system (copyright 1986, Carnegie Mellon
 University), and the Gaussian 82(TM) system (copyright 1983,
 Carnegie Mellon University). Gaussian is a federally registered
 trademark of Gaussian, Inc.
  
 This software contains proprietary and confidential information,
 including trade secrets, belonging to Gaussian, Inc.
  
 This software is provided under written license and may be
 used, copied, transmitted, or stored only in accord with that
 written license.
  
 The following legend is applicable only to US Government
 contracts under FAR:
  
                    RESTRICTED RIGHTS LEGEND
  
 Use, reproduction and disclosure by the US Government is
 subject to restrictions as set forth in subparagraphs (a)
 and (c) of the Commercial Computer Software - Restricted
 Rights clause in FAR 52.227-19.
  
 Gaussian, Inc.
 340 Quinnipiac St., Bldg. 40, Wallingford CT 06492
  
  
 ---------------------------------------------------------------
 Warning -- This program may not be used in any manner that
 competes with the business of Gaussian, Inc. or will provide
 assistance to any competitor of Gaussian, Inc.  The licensee
 of this program is prohibited from giving any competitor of
 Gaussian, Inc. access to this program.  By using this program,
 the user acknowledges that Gaussian, Inc. is engaged in the
 business of creating and licensing software in the field of
 computational chemistry and represents and warrants to the
 licensee that it is not a competitor of Gaussian, Inc. and that
 it will not use this program in any manner prohibited above.
 ---------------------------------------------------------------
  

 Cite this work as:
 Gaussian 03, Revision C.02,
 M. J. Frisch, G. W. Trucks, H. B. Schlegel, G. E. Scuseria, 
 M. A. Robb, J. R. Cheeseman, J. A. Montgomery, Jr., T. Vreven, 
 K. N. Kudin, J. C. Burant, J. M. Millam, S. S. Iyengar, J. Tomasi, 
 V. Barone, B. Mennucci, M. Cossi, G. Scalmani, N. Rega, 
 G. A. Petersson, H. Nakatsuji, M. Hada, M. Ehara, K. Toyota, 
 R. Fukuda, J. Hasegawa, M. Ishida, T. Nakajima, Y. Honda, O. Kitao, 
 H. Nakai, M. Klene, X. Li, J. E. Knox, H. P. Hratchian, J. B. Cross, 
 C. Adamo, J. Jaramillo, R. Gomperts, R. E. Stratmann, O. Yazyev, 
 A. J. Austin, R. Cammi, C. Pomelli, J. W. Ochterski, P. Y. Ayala, 
 K. Morokuma, G. A. Voth, P. Salvador, J. J. Dannenberg, 
 V. G. Zakrzewski, S. Dapprich, A. D. Daniels, M. C. Strain, 
 O. Farkas, D. K. Malick, A. D. Rabuck, K. Raghavachari, 
 J. B. Foresman, J. V. Ortiz, Q. Cui, A. G. Baboul, S. Clifford, 
 J. Cioslowski, B. B. Stefanov, G. Liu, A. Liashenko, P. Piskorz, 
 I. Komaromi, R. L. Martin, D. J. Fox, T. Keith, M. A. Al-Laham, 
 C. Y. Peng, A. Nanayakkara, M. Challacombe, P. M. W. Gill, 
 B. Johnson, W. Chen, M. W. Wong, C. Gonzalez, and J. A. Pople, 
 Gaussian, Inc., Wallingford CT, 2004.
 
 ******************************************
 Gaussian 03:  AM64L-G03RevC.02 12-Jun-2004
                 1-Apr-2012 
 ******************************************
 %chk=geom
 ----------------------------------------------------
 # B3LYP 6-311+G** geom=checkpoint freq pop=none test
 ----------------------------------------------------
 1/10=4,29=2,30=1,38=1/1,3;
 2/40=1/2;
 3/5=4,6=6,7=111,11=2,16=1,25=1,30=1,74=-5/1,2,3;
 4//1;
 5/5=2,38=5/2;
 8/6=4,10=90,11=11/1;
 11/6=1,8=1,9=11,15=111,16=1/1,2,10;
 10/6=1/2;
 7/8=1,10=1,25=1/1,2,3,16;
 1/10=4,30=1/3;
 99//99;
 ---------------------------
 *** Vibrations NH3 **** 0 1
 ---------------------------
 Z-Matrix taken from the checkpoint file:
 geom.chk
 Charge =  0 Multiplicity = 1
 C
 C,1,cc
 H,1,ch,2,a
 H,1,ch,2,a,3,d,0
 Cl,2,ccl,1,a1,3,d,0
 Cl,2,ccl,1,a1,3,d1,0
      Variables:
 cc=1.32515604
 ccl=1.74347597
 ch=1.08134455
 a=120.48345484
 a1=122.88659083
 d=180.
 d1=0.
 Recover connectivity data from disk.

 GradGradGradGradGradGradGradGradGradGradGradGradGradGradGradGradGradGrad
 Berny optimization.
 Initialization pass.
                       ----------------------------
                       !    Initial Parameters    !
                       ! (Angstroms and Degrees)  !
 ----------------------                            ----------------------
 !      Name          Value   Derivative information (Atomic Units)     !
 ------------------------------------------------------------------------
 !       cc          1.3252   calculate D2E/DX2 analytically            !
 !       ccl         1.7435   calculate D2E/DX2 analytically            !
 !       ch          1.0813   calculate D2E/DX2 analytically            !
 !        a        120.4835   calculate D2E/DX2 analytically            !
 !       a1        122.8866   calculate D2E/DX2 analytically            !
 !        d        180.0      calculate D2E/DX2 analytically            !
 !       d1          0.0      calculate D2E/DX2 analytically            !
 ------------------------------------------------------------------------
 Trust Radius=3.00D-01 FncErr=1.00D-07 GrdErr=1.00D-07
 Number of steps in this run=   2 maximum allowed number of steps=   2.
 GradGradGradGradGradGradGradGradGradGradGradGradGradGradGradGradGradGrad

                          Input orientation:                          
 ---------------------------------------------------------------------
 Center     Atomic     Atomic              Coordinates (Angstroms)
 Number     Number      Type              X           Y           Z
 ---------------------------------------------------------------------
    1          6             0        0.000000    0.000000   -1.751997
    2          6             0        0.000000    0.000000   -0.426841
    3          1             0        0.931876    0.000000   -2.300552
    4          1             0       -0.931876    0.000000   -2.300552
    5         17             0       -1.464079    0.000000    0.519828
    6         17             0        1.464079    0.000000    0.519828
 ---------------------------------------------------------------------
                    Distance matrix (angstroms):
                    1          2          3          4          5
     1  C    0.000000
     2  C    1.325156   0.000000
     3  H    1.081345   2.092650   0.000000
     4  H    1.081345   2.092650   1.863753   0.000000
     5  Cl   2.702724   1.743476   3.700695   2.870154   0.000000
     6  Cl   2.702724   1.743476   2.870154   3.700695   2.928157
                    6
     6  Cl   0.000000
 Stoichiometry    C2H2Cl2
 Framework group  C2V[C2(CC),SGV(H2Cl2)]
 Deg. of freedom     5
 Full point group                 C2V     NOp   4
 Largest Abelian subgroup         C2V     NOp   4
 Largest concise Abelian subgroup C2      NOp   2
                         Standard orientation:                         
 ---------------------------------------------------------------------
 Center     Atomic     Atomic              Coordinates (Angstroms)
 Number     Number      Type              X           Y           Z
 ---------------------------------------------------------------------
    1          6             0        0.000000    0.000000    1.751997
    2          6             0        0.000000    0.000000    0.426841
    3          1             0        0.000000    0.931876    2.300552
    4          1             0        0.000000   -0.931876    2.300552
    5         17             0        0.000000   -1.464079   -0.519828
    6         17             0        0.000000    1.464079   -0.519828
 ---------------------------------------------------------------------
 Rotational constants (GHZ):      7.4033908      3.3322347      2.2979412
 Standard basis: 6-311+G(d,p) (5D, 7F)
 There are    49 symmetry adapted basis functions of A1  symmetry.
 There are    11 symmetry adapted basis functions of A2  symmetry.
 There are    19 symmetry adapted basis functions of B1  symmetry.
 There are    37 symmetry adapted basis functions of B2  symmetry.
 Integral buffers will be    131072 words long.
 Raffenetti 2 integral format.
 Two-electron integral symmetry is turned on.
   116 basis functions,   194 primitive gaussians,   120 cartesian basis functions
    24 alpha electrons       24 beta electrons
       nuclear repulsion energy       188.7851683103 Hartrees.
 NAtoms=    6 NActive=    6 NUniq=    4 SFac= 2.76D+00 NAtFMM=   60 Big=F
 One-electron integrals computed using PRISM.
 NBasis=   116 RedAO= T  NBF=    49    11    19    37
 NBsUse=   116 1.00D-06 NBFU=    49    11    19    37
 Harris functional with IExCor=  402 diagonalized for initial guess.
 ExpMin= 4.38D-02 ExpMax= 1.06D+05 ExpMxC= 3.62D+03 IAcc=2 IRadAn=         4 AccDes= 0.00D+00
 HarFok:  IExCor= 402 AccDes= 0.00D+00 IRadAn=         4 IDoV=1
 ScaDFX=  1.000000  1.000000  1.000000  1.000000
 Initial guess orbital symmetries:
       Occupied  (B2) (A1) (A1) (A1) (B2) (A1) (B2) (A1) (A1) (B2)
                 (A2) (B1) (A1) (B2) (A1) (A1) (B2) (A1) (B2) (B1)
                 (A1) (A2) (B2) (B1)
       Virtual   (B1) (A1) (B2) (A1) (A1) (B2) (B1) (A1) (A1) (B2)
                 (B1) (A2) (A1) (B2) (B2) (A1) (B1) (A1) (B2) (A1)
                 (B2) (A1) (A1) (B2) (A1) (B1) (A1) (B2) (A1) (A2)
                 (B2) (B1) (B1) (B2) (A1) (A1) (A2) (B2) (A1) (B1)
                 (A2) (B2) (B1) (A1) (B2) (A1) (A2) (B2) (A1) (B1)
                 (B2) (A1) (A1) (B2) (A2) (B2) (A1) (B1) (A1) (A2)
                 (B1) (A1) (B2) (A1) (B1) (B2) (A2) (A1) (B2) (A1)
                 (B2) (A1) (B1) (A1) (B2) (B1) (B2) (A1) (B2) (A1)
                 (A1) (B2) (A1) (A1) (B1) (A2) (B2) (A1) (A1) (B2)
                 (A1) (B2)
 The electronic state of the initial guess is 1-A1.
 Requested convergence on RMS density matrix=1.00D-08 within 128 cycles.
 Requested convergence on MAX density matrix=1.00D-06.
 Requested convergence on             energy=1.00D-06.
 No special actions if energy rises.
 SCF Done:  E(RB+HF-LYP) =  -997.857260103     A.U. after   12 cycles
             Convg  =    0.7451D-09             -V/T =  2.0025
             S**2   =   0.0000
 Range of M.O.s used for correlation:     1   116
 NBasis=   116 NAE=    24 NBE=    24 NFC=     0 NFV=     0
 NROrb=    116 NOA=    24 NOB=    24 NVA=    92 NVB=    92

 **** Warning!!: The largest alpha MO coefficient is  0.56533842D+02

 Symmetrizing basis deriv contribution to polar:
 IMax=3 JMax=2 DiffMx= 0.00D+00
 G2DrvN: will do    7 centers at a time, making    1 passes doing MaxLOS=2.
 FoFDir/FoFCou used for L=0 through L=2.
 DoAtom=TTTTTT
          Differentiating once with respect to electric field.
                with respect to dipole field.
          Differentiating once with respect to nuclear coordinates.
 Integrals replicated using symmetry in FoFDir.
 MinBra= 0 MaxBra= 2 Meth= 1.
 IRaf=       0 NMat=  15 IRICut=      15 DoRegI=T DoRafI=T ISym2E= 2 JSym2E=2.
          There are  15 degrees of freedom in the 1st order CPHF.
    15 vectors were produced by pass  0.
 AX will form  15 AO Fock derivatives at one time.
    15 vectors were produced by pass  1.
    15 vectors were produced by pass  2.
    15 vectors were produced by pass  3.
    15 vectors were produced by pass  4.
    15 vectors were produced by pass  5.
    10 vectors were produced by pass  6.
     3 vectors were produced by pass  7.
     2 vectors were produced by pass  8.
 Inv2:  IOpt= 1 Iter= 1 AM= 1.35D-15 Conv= 1.00D-12.
 Inverted reduced A of dimension  105 with in-core refinement.
 Isotropic polarizability for W=    0.000000       47.74 Bohr**3.
 End of Minotr Frequency-dependent properties file   721 does not exist.
 Full mass-weighted force constant matrix:
 Low frequencies ---   -8.8802   -0.0058   -0.0056   -0.0045    1.9444    5.9336
 Low frequencies ---  301.4229  381.7624  476.3577
 Diagonal vibrational polarizability:
        2.7233181       7.7915935       2.1850933
 Harmonic frequencies (cm**-1), IR intensities (KM/Mole), Raman scattering
 activities (A**4/AMU), depolarization ratios for plane and unpolarized
 incident light, reduced masses (AMU), force constants (mDyne/A),
 and normal coordinates:
                     1                      2                      3
                    A1                     B2                     B1
 Frequencies --   301.4229               381.7622               476.3574
 Red. masses --    19.2301                 3.0137                 6.3952
 Frc consts  --     1.0294                 0.2588                 0.8550
 IR Inten    --     0.0020                 0.1609                 7.6597
 Atom AN      X      Y      Z        X      Y      Z        X      Y      Z
   1   6     0.00   0.00   0.38     0.00   0.30   0.00    -0.17   0.00   0.00
   2   6     0.00   0.00   0.36     0.00  -0.08   0.00     0.66   0.00   0.00
   3   1     0.00   0.00   0.37     0.00   0.53  -0.39    -0.51   0.00   0.00
   4   1     0.00   0.00   0.37     0.00   0.53   0.39    -0.51   0.00   0.00
   5  17     0.00   0.45  -0.14     0.00  -0.05  -0.11    -0.07   0.00   0.00
   6  17     0.00  -0.45  -0.14     0.00  -0.05   0.11    -0.07   0.00   0.00
                     4                      5                      6
                    A1                     A2                     B2
 Frequencies --   594.3995               688.0842               762.1070
 Red. masses --     9.1455                 1.0192                 3.3919
 Frc consts  --     1.9038                 0.2843                 1.1607
 IR Inten    --    17.1281                 0.0000               114.8821
 Atom AN      X      Y      Z        X      Y      Z        X      Y      Z
   1   6     0.00   0.00   0.47     0.00   0.00   0.00     0.00   0.12   0.00
   2   6     0.00   0.00   0.38     0.00   0.00   0.00     0.00   0.39   0.00
   3   1     0.00  -0.01   0.50     0.71   0.00   0.00     0.00  -0.23   0.60
   4   1     0.00   0.01   0.50    -0.71   0.00   0.00     0.00  -0.23  -0.60
   5  17     0.00  -0.18  -0.16     0.01   0.00   0.00     0.00  -0.08  -0.05
   6  17     0.00   0.18  -0.16    -0.01   0.00   0.00     0.00  -0.08   0.05
                     7                      8                      9
                    B1                     B2                     A1
 Frequencies --   895.6871              1091.2256              1402.6822
 Red. masses --     1.3370                 1.8891                 1.1665
 Frc consts  --     0.6320                 1.3254                 1.3522
 IR Inten    --    54.1049               107.9099                 0.2066
 Atom AN      X      Y      Z        X      Y      Z        X      Y      Z
   1   6     0.17   0.00   0.00     0.00   0.17   0.00     0.00   0.00   0.00
   2   6    -0.05   0.00   0.00     0.00  -0.22   0.00     0.00   0.00  -0.12
   3   1    -0.70   0.00   0.00     0.00  -0.22   0.64     0.00  -0.34   0.61
   4   1    -0.70   0.00   0.00     0.00  -0.22  -0.64     0.00   0.34   0.61
   5  17     0.00   0.00   0.00     0.00   0.01   0.00     0.00   0.00   0.00
   6  17     0.00   0.00   0.00     0.00   0.01   0.00     0.00   0.00   0.00
                    10                     11                     12
                    A1                     A1                     B2
 Frequencies --  1658.7984              3165.6363              3261.0660
 Red. masses --     5.4551                 1.0595                 1.1187
 Frc consts  --     8.8439                 6.2555                 7.0092
 IR Inten    --    89.0405                 2.3125                 0.0747
 Atom AN      X      Y      Z        X      Y      Z        X      Y      Z
   1   6     0.00   0.00   0.45     0.00   0.00  -0.07     0.00  -0.10   0.00
   2   6     0.00   0.00  -0.45     0.00   0.00   0.01     0.00   0.00   0.00
   3   1     0.00   0.48  -0.26     0.00   0.61   0.35     0.00   0.60   0.36
   4   1     0.00  -0.48  -0.26     0.00  -0.61   0.35     0.00   0.60  -0.36
   5  17     0.00   0.01   0.01     0.00   0.00   0.00     0.00   0.00   0.00
   6  17     0.00  -0.01   0.01     0.00   0.00   0.00     0.00   0.00   0.00

 -------------------
 - Thermochemistry -
 -------------------
 Temperature   298.150 Kelvin.  Pressure   1.00000 Atm.
 Atom  1 has atomic number  6 and mass  12.00000
 Atom  2 has atomic number  6 and mass  12.00000
 Atom  3 has atomic number  1 and mass   1.00783
 Atom  4 has atomic number  1 and mass   1.00783
 Atom  5 has atomic number 17 and mass  34.96885
 Atom  6 has atomic number 17 and mass  34.96885
 Molecular mass:    95.95336 amu.
 Principal axes and moments of inertia in atomic units:
                           1         2         3
     EIGENVALUES --   243.77225 541.60087 785.37312
           X            0.00000   0.00000   1.00000
           Y            1.00000   0.00000   0.00000
           Z            0.00000   1.00000   0.00000
 This molecule is an asymmetric top.
 Rotational symmetry number  2.
 Rotational temperatures (Kelvin)      0.35531     0.15992     0.11028
 Rotational constants (GHZ):           7.40339     3.33223     2.29794
 Zero-point vibrational energy      87801.3 (Joules/Mol)
                                   20.98501 (Kcal/Mol)
 Warning -- explicit consideration of   4 degrees of freedom as
           vibrations may cause significant error
 Vibrational temperatures:    433.68   549.27   685.37   855.21   990.00
          (Kelvin)           1096.50  1288.69  1570.03  2018.14  2386.64
                             4554.64  4691.94
 
 Zero-point correction=                           0.033442 (Hartree/Particle)
 Thermal correction to Energy=                    0.037724
 Thermal correction to Enthalpy=                  0.038668
 Thermal correction to Gibbs Free Energy=         0.005992
 Sum of electronic and zero-point Energies=           -997.823818
 Sum of electronic and thermal Energies=              -997.819536
 Sum of electronic and thermal Enthalpies=            -997.818592
 Sum of electronic and thermal Free Energies=         -997.851268
 
                     E (Thermal)             CV                S
                      KCal/Mol        Cal/Mol-Kelvin    Cal/Mol-Kelvin
 Total                   23.672             13.996             68.771
 Electronic               0.000              0.000              0.000
 Translational            0.889              2.981             39.595
 Rotational               0.889              2.981             24.764
 Vibrational             21.894              8.035              4.412
 Vibration  1             0.693              1.671              1.409
 Vibration  2             0.751              1.509              1.032
 Vibration  3             0.833              1.303              0.720
 Vibration  4             0.952              1.044              0.459
                       Q            Log10(Q)             Ln(Q)
 Total Bot       0.175258D-02         -2.756323         -6.346668
 Total V=0       0.422454D+13         12.625779         29.071931
 Vib (Bot)       0.823087D-15        -15.084554        -34.733470
 Vib (Bot)  1    0.630424D+00         -0.200367         -0.461363
 Vib (Bot)  2    0.473024D+00         -0.325117         -0.748610
 Vib (Bot)  3    0.352190D+00         -0.453223         -1.043585
 Vib (Bot)  4    0.252657D+00         -0.597469         -1.375722
 Vib (V=0)       0.198403D+01          0.297548          0.685129
 Vib (V=0)  1    0.130463D+01          0.115488          0.265922
 Vib (V=0)  2    0.118830D+01          0.074925          0.172520
 Vib (V=0)  3    0.111159D+01          0.045943          0.105788
 Vib (V=0)  4    0.106021D+01          0.025392          0.058467
 Electronic      0.100000D+01          0.000000          0.000000
 Translational   0.369441D+08          7.567545         17.424917
 Rotational      0.576350D+05          4.760686         10.961885
 ***** Axes restored to original set *****
 -------------------------------------------------------------------
 Center     Atomic                   Forces (Hartrees/Bohr)
 Number     Number              X              Y              Z
 -------------------------------------------------------------------
    1          6           0.000000000    0.000000000    0.000165018
    2          6           0.000000000    0.000000000   -0.000148429
    3          1          -0.000003686    0.000000000   -0.000010013
    4          1           0.000003686    0.000000000   -0.000010013
    5         17          -0.000040161    0.000000000    0.000001719
    6         17           0.000040161    0.000000000    0.000001719
 -------------------------------------------------------------------
 Cartesian Forces:  Max     0.000165018 RMS     0.000054120
 ------------------------------------------------------------------------
           Internal Coordinate Forces (Hartree/Bohr or radian)
 Cent Atom N1     Length/X     N2     Alpha/Y      N3      Beta/Z       J
 ------------------------------------------------------------------------
   1  C 
   2  C     1  -0.000145(   1)
   3  H     1   0.000002(   2)  2   0.000021(   6)
   4  H     1   0.000002(   3)  2   0.000021(   7)  3   0.000000(  10)  0
   5  Cl    2   0.000035(   4)  1  -0.000067(   8)  3   0.000000(  11)  0
   6  Cl    2   0.000035(   5)  1  -0.000067(   9)  3   0.000000(  12)  0
 ------------------------------------------------------------------------
 Internal  Forces:  Max     0.000144991 RMS     0.000052722

 GradGradGradGradGradGradGradGradGradGradGradGradGradGradGradGradGradGrad
 Berny optimization.
 Search for a local minimum.
 Step number   1 out of a maximum of   2
 All quantities printed in internal units (Hartrees-Bohrs-Radians)
 Second derivative matrix not updated -- analytic derivatives used.
 The second derivative matrix:
                          cc        ccl       ch         a        a1
           cc           0.61800
           ccl          0.05392   0.51287
           ch           0.00620  -0.00239   0.73037
           a            0.06973   0.01315  -0.02777   0.60921
           a1           0.08009  -0.09407  -0.00078   0.03477   1.35956
           d            0.00000   0.00000   0.00000   0.00000   0.00000
           d1           0.00000   0.00000   0.00000   0.00000   0.00000
                           d        d1
           d            0.19202
           d1           0.00314   0.08903
     Eigenvalues ---    0.08893   0.19211   0.47263   0.55214   0.68837
     Eigenvalues ---    0.73770   1.37917
 Angle between quadratic step and forces=  25.40 degrees.
 Linear search not attempted -- first point.
 Variable       Old X    -DE/DX   Delta X   Delta X   Delta X     New X
                                 (Linear)    (Quad)   (Total)
    cc        2.50418  -0.00014   0.00000  -0.00025  -0.00025   2.50393
   ccl        3.29469   0.00007   0.00000   0.00014   0.00014   3.29484
    ch        2.04345   0.00000   0.00000   0.00001   0.00001   2.04346
    a         2.10283   0.00004   0.00000   0.00010   0.00010   2.10293
    a1        2.14478  -0.00013   0.00000  -0.00008  -0.00008   2.14470
    d         3.14159   0.00000   0.00000   0.00000   0.00000   3.14159
    d1        0.00000   0.00000   0.00000   0.00000   0.00000   0.00000
         Item               Value     Threshold  Converged?
 Maximum Force            0.000145     0.000450     YES
 RMS     Force            0.000081     0.000300     YES
 Maximum Displacement     0.000249     0.001800     YES
 RMS     Displacement     0.000119     0.001200     YES
 Predicted change in Energy=-3.037367D-08
 Optimization completed.
    -- Stationary point found.
                       ----------------------------
                       !   Optimized Parameters   !
                       ! (Angstroms and Degrees)  !
 ----------------------                            ----------------------
 !      Name          Value   Derivative information (Atomic Units)     !
 ------------------------------------------------------------------------
 !       cc          1.3252   -DE/DX =   -0.0001                        !
 !       ccl         1.7435   -DE/DX =    0.0001                        !
 !       ch          1.0813   -DE/DX =    0.0                           !
 !        a        120.4835   -DE/DX =    0.0                           !
 !       a1        122.8866   -DE/DX =   -0.0001                        !
 !        d        180.0      -DE/DX =    0.0                           !
 !       d1          0.0      -DE/DX =    0.0                           !
 ------------------------------------------------------------------------
 GradGradGradGradGradGradGradGradGradGradGradGradGradGradGradGradGradGrad


 Test job not archived.
 1\1\GINC-CLUSTER-BIO\Freq\RB3LYP\6-311+G(d,p)\C2H2Cl2\CHAQUIN\01-Apr-2
 012\1\\# B3LYP 6-311+G** GEOM=CHECKPOINT FREQ POP=NONE TEST\\*** Vibra
 tions NH3 **** 0 1\\0,1\C\C,1,cc\H,1,ch,2,a\H,1,ch,2,a,3,d,0\Cl,2,ccl,
 1,a1,3,d,0\Cl,2,ccl,1,a1,3,d1,0\\cc=1.32515604\ccl=1.74347597\ch=1.081
 34455\a=120.48345484\a1=122.88659083\d=180.\d1=0.\\Version=AM64L-G03Re
 vC.02\State=1-A1\HF=-997.8572601\RMSD=7.451e-10\RMSF=5.412e-05\Dipole=
 0.,0.,-0.5753163\DipoleDeriv=-0.2467653,0.,0.,0.,-0.238699,0.,0.,0.,-0
 .4835877,1.5209214,0.,0.,0.,-0.1298105,0.,0.,0.,0.9271054,0.0141404,0.
 ,0.0291317,0.,0.1717615,0.,0.0399311,0.,0.064292,0.0141404,0.,-0.02913
 17,0.,0.1717615,0.,-0.0399311,0.,0.064292,-0.6512184,0.,0.3186814,0.,0
 .0124932,0.,0.2487763,0.,-0.2860508,-0.6512184,0.,-0.3186814,0.,0.0124
 932,0.,-0.2487763,0.,-0.2860508\Polar=54.9332199,0.,29.9058762,-0.0000
 006,0.,58.3849817\PG=C02V [C2(C1C1),SGV(H2Cl2)]\NImag=0\\0.66030122,0.
 ,0.09538787,0.,0.,0.83732665,-0.08428611,0.,0.,0.30910942,0.,-0.047956
 71,0.,0.,0.09166802,0.,0.,-0.54174413,0.,0.,0.73207825,-0.27292430,0.,
 0.13044789,0.00046530,0.,-0.00335547,0.28280763,0.,-0.03034516,0.,0.,0
 .00396111,0.,0.,0.02046590,0.12363199,0.,-0.12593899,0.02566272,0.,-0.
 01328144,-0.13739631,0.,0.13178570,-0.27292430,0.,-0.13044789,0.000465
 30,0.,0.00335547,-0.01310857,0.,-0.01293489,0.28280763,0.,-0.03034516,
 0.,0.,0.00396111,0.,0.,0.00261864,0.,0.,0.02046590,-0.12363199,0.,-0.1
 2593899,-0.02566272,0.,-0.01328144,0.01293489,0.,0.01042907,0.13739631
 ,0.,0.13178570,-0.01508325,0.,0.01539949,-0.11287696,0.,0.06647299,0.0
 0211462,0.,0.00083935,0.00064532,0.,-0.00019714,0.16875752,0.,0.006629
 58,0.,0.,-0.02581677,0.,0.,0.00735590,0.,0.,-0.00405639,0.,0.,0.011616
 16,0.03792536,0.,-0.02185227,0.05195713,0.,-0.08188562,-0.00089943,0.,
 -0.00351248,0.00173158,0.,0.00051814,-0.08661466,0.,0.09917635,-0.0150
 8325,0.,-0.01539949,-0.11287696,0.,-0.06647299,0.00064532,0.,0.0001971
 4,0.00211462,0.,-0.00083935,-0.04355725,0.,-0.00409997,0.16875752,0.,0
 .00662958,0.,0.,-0.02581677,0.,0.,-0.00405639,0.,0.,0.00735590,0.,0.,0
 .00427152,0.,0.,0.01161616,-0.03792536,0.,-0.02185227,-0.05195713,0.,-
 0.08188562,-0.00173158,0.,0.00051814,0.00089943,0.,-0.00351248,0.00409
 997,0.,0.00755588,0.08661466,0.,0.09917635\\0.,0.,-0.00016502,0.,0.,0.
 00014843,0.00000369,0.,0.00001001,-0.00000369,0.,0.00001001,0.00004016
 ,0.,-0.00000172,-0.00004016,0.,-0.00000172\\\@


 LEARN FROM YESTERDAY,
 LIVE FOR TODAY,
 LOOK TO TOMORROW,
 REST THIS AFTERNOON.

           -- SNOOPY
 Job cpu time:  0 days  0 hours  2 minutes 58.5 seconds.
 File lengths (MBytes):  RWF=     22 Int=      0 D2E=      0 Chk=     10 Scr=      1
 Normal termination of Gaussian 03 at Sun Apr  1 15:27:15 2012.
269.27user 4.13system 4:33.54elapsed 99%CPU (0avgtext+0avgdata 0maxresident)k
0inputs+0outputs (1major+1368463minor)pagefaults 0swaps
