[Molden Format]
[Atoms] Angs
 H     1  1     0.000000     0.000000     0.000000
 O     2  8     0.000000     0.000000     0.961318
 C     3  6     1.347032     0.000000     1.421871
 H     4  1     1.306321     0.000000     2.511363
 H     5  1     1.894882    -0.892868     1.096124
 H     6  1     1.894882     0.892868     1.096124
[FREQ]
  281.6926
  858.5475
  901.6938
  992.0884
 1080.8973
 1083.1796
 1147.0060
 1293.3186
 2144.6595
 2253.0058
 2305.7225
 3846.7506
[INT]
  146.0018
   23.1948
    1.5830
   44.8670
    1.3718
    2.2673
   48.8133
   34.4747
   44.0649
   37.2579
   17.3612
   30.9229
[FR-COORD]
 H     0.000000     0.000000     0.000000
 O     0.000000     0.000000     1.816628
 C     2.545521     0.000000     2.686947
 H     2.468589     0.000000     4.745788
 H     3.580808    -1.687276     2.071374
 H     3.580808     1.687276     2.071374
[FR-NORM-COORD]
vibration     1
    0.000000     0.000000     0.960000
    0.000000     0.000000    -0.070000
    0.000000     0.000000     0.000000
    0.000000     0.000000     0.170000
    0.120000    -0.030000    -0.050000
   -0.120000     0.030000    -0.050000
vibration     2
    0.240000     0.510000     0.000000
    0.060000    -0.030000     0.000000
   -0.150000     0.000000     0.000000
    0.030000     0.650000     0.000000
    0.140000    -0.310000    -0.030000
    0.140000    -0.310000     0.030000
vibration     3
    0.000000     0.000000     0.020000
    0.000000     0.000000     0.110000
    0.000000     0.000000    -0.200000
    0.000000     0.000000     0.100000
   -0.010000    -0.680000     0.090000
    0.010000     0.680000     0.090000
vibration     4
   -0.070000     0.170000     0.000000
    0.000000     0.340000     0.000000
   -0.010000    -0.210000     0.000000
   -0.080000    -0.460000     0.000000
    0.070000    -0.530000     0.100000
    0.070000    -0.530000    -0.100000
vibration     5
    0.000000     0.000000    -0.020000
    0.000000     0.000000     0.000000
    0.000000     0.000000    -0.130000
    0.000000     0.000000     0.750000
   -0.420000     0.180000     0.030000
    0.420000    -0.180000     0.030000
vibration     6
   -0.020000    -0.070000     0.000000
    0.010000     0.010000     0.000000
    0.120000    -0.020000     0.000000
    0.210000     0.330000     0.000000
   -0.510000    -0.120000     0.380000
   -0.510000    -0.120000    -0.380000
vibration     7
    0.070000     0.110000     0.000000
   -0.020000    -0.110000     0.000000
    0.020000     0.360000     0.000000
   -0.220000    -0.460000     0.000000
    0.090000    -0.430000     0.310000
    0.090000    -0.430000    -0.310000
vibration     8
    0.260000     0.930000     0.000000
   -0.080000    -0.030000     0.000000
    0.080000    -0.040000     0.000000
    0.080000    -0.160000     0.000000
   -0.030000     0.090000     0.020000
   -0.030000     0.090000    -0.020000
vibration     9
    0.000000     0.000000     0.000000
    0.000000     0.000000     0.000000
   -0.030000    -0.100000     0.000000
   -0.400000     0.120000     0.000000
    0.280000     0.230000     0.520000
    0.280000     0.230000    -0.520000
vibration    10
    0.000000     0.000000    -0.010000
    0.000000     0.000000     0.000000
    0.000000     0.000000     0.190000
    0.000000     0.000000     0.010000
   -0.320000    -0.240000    -0.570000
    0.320000     0.240000    -0.570000
vibration    11
    0.020000     0.040000     0.000000
   -0.010000     0.000000     0.000000
    0.190000    -0.010000     0.000000
   -0.870000     0.240000     0.000000
   -0.120000    -0.090000    -0.230000
   -0.120000    -0.090000     0.230000
vibration    12
    0.940000    -0.330000     0.000000
   -0.060000     0.020000     0.000000
    0.000000     0.000000     0.000000
    0.000000     0.000000     0.000000
    0.000000     0.000000     0.000000
    0.000000     0.000000     0.000000
