[Molden Format]
[Atoms] Angs
 C     1  6     0.613277     1.744796     0.000000
 C     2  6     0.604088     0.406515     0.000000
 H     3  1     1.539292     2.307121     0.000000
 H     4  1    -0.308645     2.318041     0.000000
 C     5  6    -0.604088    -0.406515     0.000000
 H     6  1    -1.549166     0.132925     0.000000
 C     7  6    -0.613277    -1.744796     0.000000
 H     8  1     0.308645    -2.318041     0.000000
 H     9  1    -1.539292    -2.307121     0.000000
 H    10  1     1.549166    -0.132925     0.000000
[FREQ]
  172.1483
  298.9010
  518.1986
  534.4053
  776.5843
  898.7098
  936.8348
  937.5313
  996.9076
 1003.5683
 1051.5816
 1226.1752
 1313.1267
 1319.9765
 1413.9940
 1473.2782
 1646.2776
 1699.7147
 3123.9173
 3131.9931
 3135.2423
 3137.3116
 3219.8010
 3220.2468
[INT]
    0.7171
    2.6617
    0.0000
   14.4339
    0.0000
    0.0000
    0.0000
   96.4606
    0.0000
    2.4548
   37.9172
    0.0000
    0.0000
    2.1988
    4.1335
    0.0000
   24.6260
    0.0000
    0.0000
   18.7172
    0.0000
   13.4130
    0.0000
   25.3943
[FR-COORD]
 C     1.158925     3.297186     0.000000
 C     1.141561     0.768202     0.000000
 H     2.908840     4.359827     0.000000
 H    -0.583254     4.380462     0.000000
 C    -1.141561    -0.768202     0.000000
 H    -2.927499     0.251192     0.000000
 C    -1.158925    -3.297186     0.000000
 H     0.583254    -4.380462     0.000000
 H    -2.908840    -4.359827     0.000000
 H     2.927499    -0.251192     0.000000
[FR-NORM-COORD]
vibration     1
    0.000000     0.000000     0.180000
    0.000000     0.000000    -0.200000
    0.000000     0.000000     0.260000
    0.000000     0.000000     0.440000
    0.000000     0.000000    -0.200000
    0.000000     0.000000    -0.410000
    0.000000     0.000000     0.180000
    0.000000     0.000000     0.440000
    0.000000     0.000000     0.260000
    0.000000     0.000000    -0.410000
vibration     2
    0.140000     0.000000     0.000000
   -0.180000     0.010000     0.000000
    0.320000    -0.280000     0.000000
    0.320000     0.290000     0.000000
   -0.180000     0.010000     0.000000
   -0.250000    -0.140000     0.000000
    0.140000     0.000000     0.000000
    0.320000     0.290000     0.000000
    0.320000    -0.280000     0.000000
   -0.250000    -0.140000     0.000000
vibration     3
    0.090000     0.200000     0.000000
   -0.070000     0.160000     0.000000
    0.250000    -0.060000     0.000000
    0.260000     0.470000     0.000000
    0.070000    -0.160000     0.000000
    0.000000    -0.270000     0.000000
   -0.090000    -0.200000     0.000000
   -0.260000    -0.470000     0.000000
   -0.250000     0.060000     0.000000
    0.000000     0.270000     0.000000
vibration     4
    0.000000     0.000000     0.020000
    0.000000     0.000000    -0.050000
    0.000000     0.000000     0.500000
    0.000000     0.000000    -0.380000
    0.000000     0.000000    -0.050000
    0.000000     0.000000     0.320000
    0.000000     0.000000     0.020000
    0.000000     0.000000    -0.380000
    0.000000     0.000000     0.500000
    0.000000     0.000000     0.320000
vibration     5
    0.000000     0.000000    -0.010000
    0.000000     0.000000     0.170000
    0.000000     0.000000    -0.600000
    0.000000     0.000000     0.320000
    0.000000     0.000000    -0.170000
    0.000000     0.000000     0.080000
    0.000000     0.000000     0.010000
    0.000000     0.000000    -0.320000
    0.000000     0.000000     0.600000
    0.000000     0.000000    -0.080000
vibration     6
    0.090000     0.090000     0.000000
    0.140000     0.040000     0.000000
   -0.190000     0.550000     0.000000
   -0.160000    -0.310000     0.000000
   -0.140000    -0.040000     0.000000
   -0.090000     0.050000     0.000000
   -0.090000    -0.090000     0.000000
    0.160000     0.310000     0.000000
    0.190000    -0.550000     0.000000
    0.090000    -0.050000     0.000000
vibration     7
    0.000000     0.000000     0.110000
    0.000000     0.000000    -0.020000
    0.000000     0.000000    -0.380000
    0.000000     0.000000    -0.570000
    0.000000     0.000000     0.020000
    0.000000     0.000000     0.140000
    0.000000     0.000000    -0.110000
    0.000000     0.000000     0.570000
    0.000000     0.000000     0.380000
    0.000000     0.000000    -0.140000
vibration     8
    0.000000     0.000000     0.120000
    0.000000     0.000000    -0.040000
    0.000000     0.000000    -0.480000
    0.000000     0.000000    -0.500000
    0.000000     0.000000    -0.040000
    0.000000     0.000000     0.000000
    0.000000     0.000000     0.120000
    0.000000     0.000000    -0.500000
    0.000000     0.000000    -0.480000
    0.000000     0.000000     0.000000
vibration     9
    0.000000     0.000000    -0.040000
    0.000000     0.000000     0.100000
    0.000000     0.000000     0.300000
    0.000000     0.000000    -0.190000
    0.000000     0.000000    -0.100000
    0.000000     0.000000     0.600000
    0.000000     0.000000     0.040000
    0.000000     0.000000     0.190000
    0.000000     0.000000    -0.300000
    0.000000     0.000000    -0.600000
vibration    10
    0.080000     0.010000     0.000000
   -0.040000     0.010000     0.000000
   -0.160000     0.400000     0.000000
   -0.160000    -0.380000     0.000000
   -0.040000     0.010000     0.000000
   -0.210000    -0.300000     0.000000
    0.080000     0.010000     0.000000
   -0.160000    -0.380000     0.000000
   -0.160000     0.400000     0.000000
   -0.210000    -0.300000     0.000000
vibration    11
    0.000000     0.000000    -0.010000
    0.000000     0.000000     0.060000
    0.000000     0.000000     0.230000
    0.000000     0.000000    -0.300000
    0.000000     0.000000     0.060000
    0.000000     0.000000    -0.590000
    0.000000     0.000000    -0.010000
    0.000000     0.000000    -0.300000
    0.000000     0.000000     0.230000
    0.000000     0.000000    -0.590000
vibration    12
   -0.070000    -0.020000     0.000000
    0.200000     0.000000     0.000000
    0.080000    -0.240000     0.000000
    0.110000     0.250000     0.000000
   -0.200000     0.000000     0.000000
   -0.420000    -0.380000     0.000000
    0.070000     0.020000     0.000000
   -0.110000    -0.250000     0.000000
   -0.080000     0.240000     0.000000
    0.420000     0.380000     0.000000
vibration    13
    0.060000    -0.070000     0.000000
   -0.060000     0.050000     0.000000
    0.040000    -0.050000     0.000000
   -0.120000    -0.380000     0.000000
    0.060000    -0.050000     0.000000
   -0.200000    -0.530000     0.000000
   -0.060000     0.070000     0.000000
    0.120000     0.380000     0.000000
   -0.040000     0.050000     0.000000
    0.200000     0.530000     0.000000
vibration    14
    0.060000    -0.050000     0.000000
   -0.070000     0.020000     0.000000
   -0.020000     0.070000     0.000000
   -0.070000    -0.260000     0.000000
   -0.070000     0.020000     0.000000
    0.240000     0.590000     0.000000
    0.060000    -0.050000     0.000000
   -0.070000    -0.260000     0.000000
   -0.020000     0.070000     0.000000
    0.240000     0.590000     0.000000
vibration    15
   -0.010000    -0.020000     0.000000
    0.020000     0.100000     0.000000
    0.240000    -0.460000     0.000000
   -0.220000    -0.390000     0.000000
    0.020000     0.100000     0.000000
   -0.100000    -0.100000     0.000000
   -0.010000    -0.020000     0.000000
   -0.220000    -0.390000     0.000000
    0.240000    -0.460000     0.000000
   -0.100000    -0.100000     0.000000
vibration    16
   -0.020000     0.050000     0.000000
    0.050000     0.070000     0.000000
    0.270000    -0.430000     0.000000
   -0.240000    -0.340000     0.000000
   -0.050000    -0.070000     0.000000
    0.110000     0.220000     0.000000
    0.020000    -0.050000     0.000000
    0.240000     0.340000     0.000000
   -0.270000     0.430000     0.000000
   -0.110000    -0.220000     0.000000
vibration    17
   -0.020000    -0.260000     0.000000
    0.030000     0.220000     0.000000
   -0.330000     0.210000     0.000000
    0.340000     0.280000     0.000000
    0.030000     0.220000     0.000000
   -0.170000    -0.080000     0.000000
   -0.020000    -0.260000     0.000000
    0.340000     0.280000     0.000000
   -0.330000     0.210000     0.000000
   -0.170000    -0.080000     0.000000
vibration    18
    0.010000     0.230000     0.000000
   -0.070000    -0.320000     0.000000
    0.250000    -0.110000     0.000000
   -0.270000    -0.170000     0.000000
    0.070000     0.320000     0.000000
   -0.290000    -0.280000     0.000000
   -0.010000    -0.230000     0.000000
    0.270000     0.170000     0.000000
   -0.250000     0.110000     0.000000
    0.290000     0.280000     0.000000
vibration    19
    0.000000    -0.020000     0.000000
    0.050000    -0.020000     0.000000
    0.220000     0.130000     0.000000
   -0.210000     0.120000     0.000000
   -0.050000     0.020000     0.000000
    0.530000    -0.300000     0.000000
    0.000000     0.020000     0.000000
    0.210000    -0.120000     0.000000
   -0.220000    -0.130000     0.000000
   -0.530000     0.300000     0.000000
vibration    20
    0.010000    -0.040000     0.000000
    0.020000     0.000000     0.000000
    0.360000     0.210000     0.000000
   -0.450000     0.270000     0.000000
    0.020000     0.000000     0.000000
   -0.190000     0.100000     0.000000
    0.010000    -0.040000     0.000000
   -0.450000     0.270000     0.000000
    0.360000     0.210000     0.000000
   -0.190000     0.100000     0.000000
vibration    21
   -0.010000     0.040000     0.000000
    0.030000    -0.020000     0.000000
   -0.290000    -0.170000     0.000000
    0.440000    -0.270000     0.000000
   -0.030000     0.020000     0.000000
    0.290000    -0.160000     0.000000
    0.010000    -0.040000     0.000000
   -0.440000     0.270000     0.000000
    0.290000     0.170000     0.000000
   -0.290000     0.160000     0.000000
vibration    22
   -0.010000     0.020000     0.000000
    0.050000    -0.030000     0.000000
   -0.050000    -0.030000     0.000000
    0.200000    -0.120000     0.000000
    0.050000    -0.030000     0.000000
   -0.580000     0.320000     0.000000
   -0.010000     0.020000     0.000000
    0.200000    -0.120000     0.000000
   -0.050000    -0.030000     0.000000
   -0.580000     0.320000     0.000000
vibration    23
   -0.070000    -0.010000     0.000000
   -0.010000     0.000000     0.000000
    0.480000     0.300000     0.000000
    0.350000    -0.220000     0.000000
    0.010000     0.000000     0.000000
   -0.060000     0.040000     0.000000
    0.070000     0.010000     0.000000
   -0.350000     0.220000     0.000000
   -0.480000    -0.300000     0.000000
    0.060000    -0.040000     0.000000
vibration    24
    0.070000     0.010000     0.000000
    0.010000    -0.010000     0.000000
   -0.480000    -0.300000     0.000000
   -0.350000     0.220000     0.000000
    0.010000    -0.010000     0.000000
   -0.090000     0.050000     0.000000
    0.070000     0.010000     0.000000
   -0.350000     0.220000     0.000000
   -0.480000    -0.300000     0.000000
   -0.090000     0.050000     0.000000
