[Molden Format]
[Atoms] Angs
 C     1  6    -0.783481    -0.008510    -0.930192
 C     2  6    -0.783481    -0.008510     0.468930
 C     3  6     0.450227    -0.008510     1.129721
 C     4  6     1.647275    -0.001901     0.416234
 C     5  6     1.632263     0.002139    -0.977721
 C     6  6     0.410939    -0.002314    -1.648875
 C     7  6    -2.078571     0.017961     1.245188
 H     8  1     2.562507     0.004148    -1.534522
 H     9  1     2.591871    -0.003937     0.949193
 H    10  1     0.386560    -0.004721    -2.733194
 H    11  1     0.473096    -0.015320     2.215089
 H    12  1    -1.729163    -0.015249    -1.463314
 H    13  1    -2.883950    -0.473564     0.694243
 H    14  1    -1.974761    -0.481204     2.211536
 H    15  1    -2.397186     1.047708     1.441255
[FREQ]
   30.1356
  208.4423
  343.4055
  413.3783
  475.9237
  528.7417
  636.7674
  711.2177
  743.7281
  798.3432
  853.9604
  912.1701
  982.1666
  999.6359
 1002.4711
 1017.1065
 1050.3074
 1062.4546
 1110.3039
 1181.0304
 1203.0964
 1228.0351
 1328.6290
 1355.8519
 1414.0453
 1468.3621
 1490.0521
 1502.3756
 1527.3948
 1623.3641
 1645.0449
 3020.8128
 3074.5002
 3100.2885
 3152.8273
 3154.3882
 3167.1265
 3175.3235
 3187.9578
[INT]
    0.2787
    2.3682
    0.3733
    0.0071
    9.8219
    0.5819
    0.0955
   29.9731
   52.5291
    0.8324
    0.0237
    0.5797
    0.0012
    0.1409
    0.0322
    0.0830
    3.7423
    8.0886
    6.3289
    0.0518
    0.4479
    1.0162
    0.0367
    0.0005
    1.3325
    0.0118
    7.3103
   13.4353
   13.7626
    0.2554
    9.1975
   28.9094
   19.3908
   16.6837
    9.0304
    5.8982
    7.0692
   36.3771
   14.2801
[FR-COORD]
 C    -1.480564    -0.016082    -1.757808
 C    -1.480564    -0.016082     0.886149
 C     0.850806    -0.016082     2.134863
 C     3.112898    -0.003592     0.786568
 C     3.084530     0.004042    -1.847625
 C     0.776562    -0.004373    -3.115922
 C    -3.927930     0.033941     2.353064
 H     4.842436     0.007839    -2.899826
 H     4.897926    -0.007440     1.793715
 H     0.730492    -0.008921    -5.164988
 H     0.894022    -0.028951     4.185911
 H    -3.267644    -0.028816    -2.765262
 H    -5.449875    -0.894906     1.311929
 H    -3.731757    -0.909344     4.179197
 H    -4.530025     1.979881     2.723577
[FR-NORM-COORD]
vibration     1
    0.000000     0.000000    -0.020000
    0.000000     0.010000     0.000000
    0.000000     0.000000     0.020000
    0.000000     0.000000     0.020000
    0.000000     0.000000     0.000000
    0.000000     0.000000    -0.020000
    0.000000    -0.010000     0.000000
    0.000000     0.000000     0.000000
    0.000000     0.000000     0.040000
    0.000000     0.000000    -0.040000
    0.000000     0.000000     0.040000
    0.000000     0.000000    -0.040000
    0.000000     0.270000     0.500000
    0.000000     0.270000    -0.500000
    0.000000    -0.590000     0.000000
vibration     2
    0.000000     0.000000     0.190000
    0.000000     0.000000     0.150000
    0.000000     0.000000     0.190000
    0.000000     0.000000    -0.010000
    0.000000     0.000000    -0.200000
    0.000000     0.000000    -0.010000
   -0.010000     0.000000    -0.210000
    0.010000     0.000000    -0.450000
    0.000000     0.000000    -0.070000
    0.000000     0.000000    -0.070000
    0.000000     0.000000     0.250000
    0.000000     0.000000     0.250000
    0.140000     0.000000    -0.340000
    0.140000     0.000000    -0.340000
   -0.320000     0.000000    -0.330000
vibration     3
    0.060000     0.130000     0.010000
    0.000000     0.150000     0.000000
   -0.060000     0.130000    -0.010000
   -0.080000    -0.010000     0.010000
    0.000000    -0.070000     0.000000
    0.080000    -0.010000    -0.010000
    0.000000    -0.230000     0.000000
    0.000000    -0.140000     0.000000
   -0.170000    -0.060000     0.020000
    0.170000    -0.060000    -0.020000
   -0.150000     0.180000    -0.020000
    0.150000     0.180000     0.020000
   -0.330000    -0.400000    -0.030000
    0.330000    -0.400000     0.030000
    0.000000    -0.350000     0.000000
vibration     4
    0.000000     0.010000    -0.210000
    0.000000     0.010000     0.000000
    0.000000     0.010000     0.210000
    0.000000     0.000000    -0.210000
    0.000000     0.000000     0.000000
    0.000000     0.000000     0.210000
    0.000000    -0.010000     0.000000
    0.000000    -0.010000     0.000000
   -0.010000     0.000000    -0.460000
    0.010000     0.000000     0.460000
   -0.010000     0.010000     0.450000
    0.010000     0.010000    -0.450000
   -0.010000    -0.020000     0.000000
    0.010000    -0.020000     0.000000
    0.000000    -0.010000     0.000000
vibration     5
    0.010000    -0.010000    -0.040000
   -0.010000     0.000000     0.280000
    0.010000     0.010000    -0.040000
    0.010000     0.010000    -0.130000
    0.020000     0.000000     0.190000
    0.010000    -0.010000    -0.130000
   -0.030000     0.000000    -0.010000
    0.020000     0.000000     0.320000
    0.000000     0.000000    -0.400000
    0.000000     0.000000    -0.400000
    0.020000     0.000000    -0.320000
    0.020000     0.000000    -0.320000
    0.120000    -0.010000    -0.150000
    0.130000     0.010000    -0.150000
   -0.360000     0.000000    -0.140000
vibration     6
    0.050000    -0.130000     0.000000
   -0.220000     0.000000    -0.040000
    0.050000     0.130000     0.000000
    0.110000     0.120000     0.020000
    0.290000     0.000000    -0.020000
    0.110000    -0.120000     0.020000
   -0.370000     0.000000     0.010000
    0.300000     0.000000    -0.020000
   -0.050000     0.030000     0.070000
   -0.050000    -0.030000     0.070000
    0.240000     0.020000     0.050000
    0.240000    -0.020000     0.050000
   -0.390000     0.000000     0.020000
   -0.390000     0.000000     0.020000
   -0.330000     0.000000     0.020000
vibration     7
   -0.240000     0.200000     0.000000
    0.000000     0.140000     0.000000
    0.240000     0.200000     0.000000
    0.260000    -0.240000     0.000000
    0.000000    -0.140000     0.000000
   -0.260000    -0.240000     0.000000
    0.000000     0.050000     0.000000
    0.000000     0.300000     0.000000
    0.120000    -0.320000     0.000000
   -0.120000    -0.320000     0.000000
    0.100000     0.280000     0.000000
   -0.100000     0.280000     0.000000
    0.020000     0.070000     0.010000
   -0.020000     0.070000    -0.010000
    0.000000     0.060000     0.000000
vibration     8
    0.000000     0.000000    -0.100000
    0.000000     0.000000     0.110000
    0.000000     0.000000    -0.100000
    0.000000     0.000000     0.160000
    0.000000     0.000000    -0.100000
    0.000000     0.000000     0.160000
    0.000000     0.000000     0.020000
    0.000000     0.000000    -0.590000
    0.000000     0.000000    -0.080000
    0.000000     0.000000    -0.080000
    0.000000     0.000000    -0.520000
    0.000000     0.000000    -0.520000
    0.040000     0.000000    -0.020000
    0.040000     0.000000    -0.020000
   -0.100000     0.000000    -0.020000
vibration     9
    0.000000    -0.010000     0.090000
   -0.010000     0.000000    -0.120000
    0.000000     0.010000     0.090000
    0.000000     0.010000     0.000000
    0.010000     0.000000     0.110000
    0.000000    -0.010000     0.000000
    0.010000     0.000000    -0.030000
    0.010000     0.000000    -0.460000
   -0.010000     0.010000    -0.540000
   -0.010000    -0.010000    -0.540000
    0.010000     0.000000    -0.180000
    0.010000     0.000000    -0.180000
   -0.100000     0.010000     0.090000
   -0.100000    -0.010000     0.090000
    0.250000     0.000000     0.070000
vibration    10
    0.080000     0.180000     0.010000
    0.050000     0.000000    -0.030000
    0.080000    -0.180000     0.010000
    0.130000    -0.220000     0.000000
   -0.170000     0.000000     0.020000
    0.130000     0.220000     0.000000
   -0.280000     0.000000     0.010000
   -0.160000     0.000000    -0.080000
    0.400000    -0.070000    -0.070000
    0.400000     0.070000    -0.070000
   -0.010000    -0.140000     0.000000
   -0.010000     0.140000     0.000000
   -0.310000    -0.010000     0.000000
   -0.310000     0.010000     0.000000
   -0.290000     0.000000     0.000000
vibration    11
    0.000000     0.000000    -0.080000
    0.000000     0.000000     0.000000
    0.000000     0.000000     0.080000
    0.000000     0.000000     0.070000
    0.000000     0.000000     0.000000
    0.000000     0.000000    -0.070000
    0.000000     0.000000     0.000000
    0.000000     0.000000     0.000000
    0.010000     0.000000    -0.480000
   -0.010000     0.000000     0.480000
    0.010000     0.000000    -0.510000
   -0.010000     0.000000     0.510000
   -0.010000    -0.010000     0.000000
    0.010000    -0.010000     0.000000
    0.000000    -0.010000     0.000000
vibration    12
    0.000000     0.010000     0.090000
    0.000000     0.000000    -0.020000
    0.000000    -0.010000     0.090000
    0.000000     0.000000    -0.010000
    0.000000     0.000000    -0.100000
    0.000000     0.000000    -0.010000
    0.000000     0.000000    -0.030000
    0.000000     0.000000     0.570000
    0.000000     0.000000     0.090000
    0.000000     0.000000     0.090000
    0.010000     0.000000    -0.520000
    0.010000     0.000000    -0.530000
   -0.100000     0.020000     0.080000
   -0.100000    -0.020000     0.080000
    0.200000     0.000000     0.050000
vibration    13
    0.000000     0.000000    -0.090000
    0.000000     0.000000     0.000000
    0.000000     0.000000     0.090000
    0.000000     0.000000    -0.090000
    0.000000     0.000000     0.000000
    0.000000     0.000000     0.090000
    0.000000     0.010000     0.000000
    0.000000     0.000000     0.000000
    0.000000     0.000000     0.510000
    0.000000     0.000000    -0.510000
    0.010000     0.000000    -0.470000
    0.000000     0.000000     0.470000
   -0.020000    -0.010000     0.000000
    0.020000    -0.010000     0.000000
    0.000000    -0.010000     0.000000
vibration    14
    0.020000    -0.070000     0.000000
    0.000000     0.060000     0.000000
   -0.020000    -0.070000     0.000000
    0.030000    -0.030000     0.000000
    0.000000     0.040000     0.000000
   -0.030000    -0.030000     0.000000
    0.000000     0.140000     0.000000
    0.000000     0.180000     0.000000
    0.140000     0.030000     0.000000
   -0.140000     0.030000     0.010000
   -0.040000    -0.070000     0.030000
    0.040000    -0.060000    -0.030000
   -0.610000    -0.170000    -0.050000
    0.610000    -0.170000     0.050000
    0.000000    -0.280000     0.000000
vibration    15
    0.000000     0.000000    -0.030000
    0.000000     0.000000    -0.010000
    0.000000     0.000000    -0.030000
    0.000000     0.000000     0.080000
    0.000000     0.000000    -0.100000
    0.000000     0.000000     0.080000
    0.000000     0.000000     0.010000
   -0.010000     0.000000     0.590000
    0.000000     0.000000    -0.510000
    0.000000     0.000000    -0.510000
    0.000000     0.000000     0.230000
    0.000000     0.000000     0.230000
    0.020000    -0.010000    -0.020000
    0.020000     0.010000    -0.020000
   -0.050000     0.000000    -0.010000
vibration    16
   -0.200000     0.340000    -0.020000
    0.020000     0.000000     0.030000
   -0.190000    -0.340000    -0.020000
   -0.020000     0.040000     0.010000
    0.390000     0.000000     0.000000
   -0.020000    -0.040000     0.010000
    0.020000     0.000000    -0.020000
    0.410000     0.000000     0.020000
   -0.020000     0.030000    -0.030000
   -0.010000    -0.030000    -0.030000
   -0.170000    -0.370000     0.060000
   -0.180000     0.370000     0.060000
   -0.030000     0.010000     0.040000
   -0.050000     0.000000     0.040000
    0.110000     0.000000     0.010000
vibration    17
    0.050000     0.080000     0.000000
    0.030000     0.000000     0.010000
    0.050000    -0.080000     0.000000
   -0.030000     0.190000     0.000000
   -0.130000     0.000000     0.000000
   -0.030000    -0.190000     0.000000
   -0.020000     0.000000    -0.010000
   -0.150000     0.000000     0.000000
    0.310000     0.390000     0.000000
    0.310000    -0.390000     0.000000
    0.350000    -0.240000     0.010000
    0.350000     0.240000     0.010000
   -0.050000     0.000000     0.020000
   -0.050000     0.000000     0.020000
    0.010000     0.000000     0.000000
vibration    18
   -0.010000     0.020000     0.040000
    0.000000     0.000000    -0.150000
   -0.010000    -0.020000     0.040000
    0.000000     0.010000     0.000000
    0.010000     0.000000     0.000000
    0.000000    -0.010000     0.000000
    0.010000     0.000000     0.150000
    0.010000     0.000000     0.030000
    0.010000     0.020000     0.000000
    0.010000    -0.020000     0.000000
    0.000000    -0.020000    -0.170000
    0.000000     0.020000    -0.170000
    0.330000    -0.090000    -0.280000
    0.330000     0.090000    -0.280000
   -0.700000     0.000000    -0.120000
vibration    19
    0.100000    -0.020000     0.000000
    0.000000     0.030000     0.000000
   -0.100000    -0.020000     0.000000
    0.050000    -0.050000     0.000000
    0.000000     0.070000     0.000000
   -0.050000    -0.050000     0.000000
    0.000000    -0.060000     0.000000
    0.000000     0.520000     0.000000
    0.230000     0.050000     0.000000
   -0.230000     0.050000     0.000000
   -0.460000     0.180000    -0.010000
    0.460000     0.180000     0.010000
    0.190000     0.050000     0.030000
   -0.190000     0.050000    -0.030000
    0.000000     0.100000     0.000000
vibration    20
   -0.010000    -0.010000     0.000000
    0.000000     0.000000     0.000000
    0.010000    -0.010000     0.000000
   -0.040000    -0.020000     0.000000
    0.000000     0.070000     0.000000
    0.040000    -0.020000     0.000000
    0.000000     0.000000     0.000000
    0.000000     0.680000     0.000000
   -0.420000    -0.240000     0.000000
    0.420000    -0.240000     0.000000
    0.150000    -0.090000     0.000000
   -0.140000    -0.090000     0.000000
    0.010000     0.000000     0.000000
   -0.010000     0.000000     0.000000
    0.000000     0.010000     0.000000
vibration    21
   -0.050000    -0.030000     0.000000
   -0.010000     0.000000     0.000000
   -0.050000     0.030000     0.000000
    0.050000     0.020000     0.000000
    0.010000     0.000000     0.000000
    0.050000    -0.020000     0.000000
    0.010000     0.000000     0.000000
    0.010000     0.000000     0.000000
    0.440000     0.250000     0.010000
    0.430000    -0.250000     0.010000
   -0.430000     0.240000     0.000000
   -0.430000    -0.240000     0.000000
    0.000000    -0.010000    -0.010000
    0.000000     0.010000    -0.010000
    0.010000     0.000000     0.000000
vibration    22
    0.050000     0.000000     0.000000
    0.360000     0.000000     0.000000
    0.050000     0.000000     0.000000
   -0.090000     0.080000     0.000000
    0.030000     0.000000     0.000000
   -0.090000    -0.080000     0.000000
   -0.140000     0.000000     0.000000
    0.020000     0.000000     0.000000
   -0.320000    -0.050000    -0.010000
   -0.320000     0.040000    -0.010000
   -0.370000     0.260000    -0.010000
   -0.370000    -0.260000    -0.010000
   -0.270000    -0.050000     0.000000
   -0.270000     0.050000     0.000000
   -0.210000     0.000000    -0.020000
vibration    23
   -0.160000    -0.120000     0.000000
    0.000000     0.340000     0.000000
    0.170000    -0.120000     0.000000
   -0.200000    -0.130000     0.000000
    0.000000     0.200000     0.000000
    0.200000    -0.130000     0.000000
    0.000000    -0.080000     0.000000
    0.000000    -0.190000     0.000000
    0.380000     0.190000     0.010000
   -0.380000     0.190000    -0.010000
    0.130000    -0.100000     0.000000
   -0.130000    -0.100000     0.000000
    0.200000     0.070000     0.090000
   -0.200000     0.080000    -0.090000
    0.000000     0.280000     0.000000
vibration    24
   -0.100000    -0.030000     0.000000
    0.000000    -0.070000     0.000000
    0.100000    -0.030000     0.000000
   -0.010000     0.010000     0.000000
    0.000000     0.100000     0.000000
    0.010000     0.010000     0.000000
    0.000000     0.030000     0.000000
    0.000000    -0.330000     0.000000
   -0.280000    -0.140000     0.000000
    0.280000    -0.140000     0.000000
   -0.480000     0.300000     0.000000
    0.480000     0.300000     0.000000
   -0.050000    -0.020000    -0.040000
    0.050000    -0.020000     0.040000
    0.000000    -0.090000     0.000000
vibration    25
    0.000000     0.000000     0.000000
   -0.030000     0.000000     0.000000
    0.000000     0.000000     0.000000
    0.010000     0.000000     0.000000
    0.000000     0.000000     0.000000
    0.010000     0.000000     0.000000
    0.140000     0.000000    -0.010000
    0.000000     0.000000     0.000000
    0.010000     0.000000     0.000000
    0.010000     0.000000     0.000000
    0.020000    -0.010000     0.000000
    0.020000     0.010000     0.000000
   -0.480000    -0.150000     0.210000
   -0.480000     0.140000     0.210000
   -0.560000     0.000000    -0.250000
vibration    26
    0.060000    -0.040000     0.000000
    0.000000     0.100000     0.000000
   -0.060000    -0.040000     0.000000
    0.110000     0.010000     0.000000
    0.000000     0.070000     0.000000
   -0.110000     0.010000     0.000000
    0.000000    -0.060000     0.000000
    0.000000    -0.440000     0.000000
   -0.250000    -0.210000     0.000000
    0.250000    -0.210000     0.000000
    0.060000    -0.120000    -0.010000
   -0.060000    -0.120000     0.010000
   -0.150000     0.050000     0.290000
    0.150000     0.050000    -0.290000
    0.000000     0.540000     0.000000
vibration    27
    0.010000     0.000000     0.000000
    0.010000     0.000000    -0.020000
    0.010000     0.000000     0.000000
    0.000000     0.000000     0.000000
    0.000000     0.000000     0.000000
    0.000000     0.000000     0.000000
   -0.020000     0.000000    -0.050000
    0.000000     0.000000     0.000000
    0.000000     0.000000     0.000000
    0.000000     0.000000     0.000000
   -0.030000     0.010000     0.000000
   -0.030000    -0.010000     0.000000
    0.250000     0.400000     0.470000
    0.250000    -0.410000     0.460000
   -0.300000     0.000000    -0.130000
vibration    28
   -0.050000     0.010000     0.000000
    0.000000    -0.080000     0.000000
    0.050000     0.010000     0.000000
   -0.050000     0.020000     0.000000
    0.000000    -0.080000     0.000000
    0.060000     0.020000     0.000000
    0.000000    -0.030000     0.000000
    0.000000     0.290000     0.000000
    0.090000     0.110000     0.000000
   -0.090000     0.110000     0.000000
   -0.100000     0.110000    -0.010000
    0.100000     0.110000     0.010000
   -0.320000     0.030000     0.340000
    0.310000     0.040000    -0.340000
    0.000000     0.610000     0.000000
vibration    29
    0.070000     0.100000     0.000000
   -0.150000     0.000000     0.000000
    0.070000    -0.100000     0.000000
    0.120000     0.110000     0.000000
   -0.110000     0.000000     0.000000
    0.120000    -0.110000     0.000000
    0.030000     0.000000     0.000000
   -0.130000     0.000000     0.000000
   -0.440000    -0.200000     0.000000
   -0.440000     0.200000     0.000000
   -0.410000     0.160000     0.000000
   -0.410000    -0.160000     0.000000
    0.030000    -0.010000    -0.020000
    0.030000     0.010000    -0.010000
    0.040000     0.000000     0.010000
vibration    30
    0.090000     0.180000     0.000000
    0.000000    -0.300000     0.000000
   -0.090000     0.180000     0.000000
   -0.070000    -0.200000     0.000000
    0.000000     0.350000     0.000000
    0.070000    -0.200000     0.000000
    0.000000     0.020000     0.000000
    0.000000    -0.460000     0.000000
    0.240000    -0.040000     0.000000
   -0.250000    -0.040000     0.000000
    0.280000    -0.020000     0.000000
   -0.290000    -0.020000     0.000000
   -0.190000    -0.010000     0.090000
    0.190000    -0.010000    -0.100000
    0.000000     0.140000     0.000000
vibration    31
    0.300000     0.090000     0.000000
   -0.230000     0.000000     0.000000
    0.300000    -0.090000     0.000000
   -0.270000    -0.070000     0.000000
    0.140000     0.000000     0.000000
   -0.270000     0.070000     0.000000
    0.030000     0.000000     0.000000
    0.150000     0.000000     0.000000
    0.240000     0.230000     0.000000
    0.240000    -0.230000     0.000000
   -0.310000     0.260000     0.000000
   -0.310000    -0.260000     0.000000
    0.010000    -0.030000    -0.030000
    0.020000     0.030000    -0.030000
    0.060000     0.000000     0.020000
vibration    32
    0.000000     0.000000     0.000000
    0.000000     0.000000     0.000000
    0.000000     0.000000     0.000000
    0.000000     0.000000     0.000000
    0.000000     0.000000     0.000000
    0.000000     0.000000     0.000000
   -0.050000     0.000000     0.030000
    0.000000     0.000000     0.000000
    0.000000     0.000000     0.000000
    0.000000     0.000000     0.000000
   -0.010000    -0.010000     0.000000
   -0.010000     0.010000     0.000000
    0.150000    -0.360000     0.210000
    0.150000     0.350000     0.210000
    0.250000     0.000000    -0.740000
vibration    33
    0.000000     0.000000     0.000000
    0.000000     0.000000     0.000000
    0.000000     0.000000     0.000000
    0.000000     0.000000     0.000000
    0.000000     0.000000     0.000000
    0.000000     0.000000     0.000000
    0.020000     0.000000     0.090000
    0.000000     0.000000     0.000000
    0.000000     0.000000     0.000000
    0.000000     0.000000     0.000000
    0.010000     0.010000     0.000000
    0.010000    -0.010000     0.000000
   -0.200000     0.460000    -0.240000
   -0.200000    -0.460000    -0.240000
    0.210000     0.000000    -0.570000
vibration    34
    0.000000     0.000000     0.000000
    0.000000     0.000000     0.000000
    0.000000     0.000000     0.000000
    0.000000     0.000000     0.000000
    0.000000     0.000000     0.000000
    0.000000     0.000000     0.000000
    0.000000     0.090000     0.000000
    0.000000     0.000000     0.000000
    0.000000     0.000000     0.000000
    0.000000     0.000000     0.000000
    0.020000     0.020000     0.000000
   -0.020000     0.020000     0.000000
    0.260000    -0.570000     0.330000
   -0.260000    -0.560000    -0.330000
    0.000000     0.020000     0.000000
vibration    35
   -0.020000     0.040000     0.000000
    0.000000     0.000000     0.000000
   -0.020000    -0.040000     0.000000
   -0.020000     0.030000     0.000000
    0.020000     0.000000     0.000000
   -0.020000    -0.030000     0.000000
    0.000000     0.000000     0.000000
   -0.280000     0.000000     0.000000
    0.200000    -0.350000     0.000000
    0.200000     0.350000     0.000000
    0.270000     0.480000     0.000000
    0.270000    -0.470000     0.000000
    0.010000    -0.010000     0.010000
    0.010000     0.010000     0.010000
    0.000000     0.000000     0.000000
vibration    36
   -0.030000     0.050000     0.000000
    0.000000     0.000000     0.000000
    0.030000     0.050000     0.000000
    0.010000    -0.020000     0.000000
    0.000000     0.000000     0.000000
   -0.010000    -0.020000     0.000000
    0.000000     0.000000     0.000000
    0.000000     0.000000     0.000000
   -0.140000     0.250000     0.000000
    0.140000     0.260000     0.000000
   -0.320000    -0.560000    -0.010000
    0.320000    -0.560000     0.010000
    0.010000    -0.020000     0.010000
   -0.010000    -0.020000    -0.010000
    0.000000     0.000000     0.000000
vibration    37
   -0.020000     0.030000     0.000000
    0.000000     0.000000     0.000000
   -0.020000    -0.030000     0.000000
    0.020000    -0.020000     0.000000
   -0.060000     0.000000     0.000000
    0.020000     0.020000     0.000000
    0.000000     0.000000     0.000000
    0.650000     0.000000     0.000000
   -0.170000     0.290000     0.000000
   -0.170000    -0.290000     0.000000
    0.200000     0.360000     0.000000
    0.210000    -0.360000     0.000000
    0.010000    -0.010000     0.000000
    0.010000     0.010000     0.000000
    0.000000     0.000000     0.000000
vibration    38
   -0.010000     0.020000     0.000000
    0.000000     0.000000     0.000000
    0.010000     0.020000     0.000000
   -0.030000     0.050000     0.000000
    0.000000     0.000000     0.000000
    0.030000     0.050000     0.000000
    0.000000     0.000000     0.000000
   -0.010000     0.010000     0.000000
    0.320000    -0.560000     0.000000
   -0.320000    -0.560000     0.000000
   -0.150000    -0.250000     0.000000
    0.150000    -0.250000     0.000000
    0.000000    -0.010000     0.000000
    0.000000    -0.010000     0.000000
    0.000000     0.000000     0.000000
vibration    39
    0.010000    -0.010000     0.000000
    0.000000     0.000000     0.000000
    0.010000     0.010000     0.000000
   -0.020000     0.040000     0.000000
   -0.060000     0.000000     0.000000
   -0.020000    -0.040000     0.000000
    0.000000     0.000000     0.000000
    0.700000     0.000000     0.000000
    0.230000    -0.410000     0.000000
    0.230000     0.410000     0.000000
   -0.080000    -0.140000     0.000000
   -0.080000     0.140000     0.000000
    0.000000     0.000000     0.000000
    0.000000     0.000000     0.000000
    0.000000     0.000000     0.000000
