[Molden Format]
[Atoms] Angs
 C     1  6     0.162059     0.045686    -1.418759
 C     2  6     0.154427    -0.032153     0.096437
 O     3  8     1.166284    -0.242836     0.728636
 C     4  6    -1.185781     0.167436     0.779209
 H     5  1     1.142931    -0.231228    -1.802755
 H     6  1    -0.605484    -0.606990    -1.845659
 H     7  1    -0.075849     1.066860    -1.735451
 H     8  1    -1.052359     0.211910     1.859251
 H     9  1    -1.671105     1.081424     0.423652
 H    10  1    -1.852638    -0.665099     0.530552
[FREQ]
   70.1888
  130.9523
  379.9844
  490.1140
  535.7297
  782.2742
  883.6324
  889.3831
 1082.9486
 1115.6037
 1232.1673
 1385.4425
 1386.7309
 1461.5783
 1464.6535
 1471.9089
 1487.5606
 1786.0776
 3024.1648
 3030.9162
 3079.6257
 3086.3327
 3139.2876
 3140.3084
[INT]
    0.0186
    0.0601
    1.5702
    0.4679
   13.3157
    1.7757
    0.1057
    8.8976
    0.0000
    2.7380
   75.7050
   21.1043
   61.6768
    0.9086
    8.2299
   23.5564
   23.3445
  209.5274
    1.4501
    6.6659
    0.9542
   19.7414
   12.0607
    7.4746
[FR-COORD]
 C     0.306247     0.086334    -2.681066
 C     0.291825    -0.060760     0.182240
 O     2.203957    -0.458894     1.376922
 C    -2.240801     0.316408     1.472491
 H     2.159826    -0.436958    -3.406713
 H    -1.144199    -1.147045    -3.487790
 H    -0.143334     2.016073    -3.279527
 H    -1.988670     0.400452     3.513475
 H    -3.157931     2.043595     0.800586
 H    -3.500978    -1.256855     1.002598
[FR-NORM-COORD]
vibration     1
    0.000000     0.000000    -0.020000
    0.000000     0.000000     0.000000
    0.000000     0.000000     0.000000
    0.000000     0.000000     0.020000
   -0.020000     0.040000     0.340000
   -0.130000     0.290000    -0.300000
    0.160000    -0.350000    -0.210000
    0.020000     0.040000    -0.340000
    0.130000     0.290000     0.300000
   -0.160000    -0.350000     0.210000
vibration     2
    0.000000     0.000000    -0.040000
    0.000000     0.000000    -0.020000
    0.000000     0.000000     0.070000
    0.000000     0.000000    -0.040000
    0.030000    -0.030000    -0.410000
    0.140000    -0.290000     0.240000
   -0.180000     0.350000     0.150000
    0.030000     0.030000    -0.400000
    0.140000     0.280000     0.240000
   -0.180000    -0.350000     0.140000
vibration     3
    0.160000    -0.100000     0.000000
    0.000000     0.130000     0.000000
    0.000000     0.130000     0.000000
   -0.160000    -0.100000     0.000000
   -0.060000    -0.380000    -0.010000
    0.400000    -0.110000     0.010000
    0.340000    -0.140000     0.000000
    0.060000    -0.380000     0.010000
   -0.400000    -0.110000    -0.010000
   -0.340000    -0.140000     0.000000
vibration     4
   -0.010000    -0.010000    -0.020000
   -0.010000     0.000000     0.270000
    0.020000     0.000000    -0.100000
   -0.010000     0.010000    -0.020000
    0.030000    -0.010000    -0.300000
    0.330000     0.130000    -0.150000
   -0.390000    -0.180000    -0.160000
    0.030000     0.010000    -0.300000
    0.330000    -0.130000    -0.150000
   -0.390000     0.180000    -0.160000
vibration     5
   -0.120000    -0.160000     0.000000
   -0.140000     0.000000    -0.040000
    0.310000     0.000000     0.020000
   -0.120000     0.160000     0.000000
   -0.340000    -0.440000     0.020000
    0.080000    -0.200000     0.040000
    0.090000    -0.170000     0.020000
   -0.340000     0.440000     0.020000
    0.080000     0.200000     0.040000
    0.090000     0.170000     0.020000
vibration     6
    0.260000     0.130000    -0.010000
    0.000000    -0.140000     0.000000
    0.000000    -0.170000     0.000000
   -0.260000     0.130000     0.010000
    0.400000     0.310000     0.040000
    0.120000     0.110000     0.010000
    0.250000     0.190000     0.020000
   -0.400000     0.310000    -0.040000
   -0.120000     0.110000    -0.010000
   -0.250000     0.190000    -0.020000
vibration     7
    0.010000     0.010000     0.100000
    0.000000    -0.010000     0.000000
    0.000000    -0.010000     0.000000
   -0.010000     0.010000    -0.100000
    0.070000     0.030000    -0.230000
    0.350000     0.230000    -0.130000
   -0.410000    -0.250000    -0.110000
   -0.070000     0.030000     0.230000
   -0.360000     0.230000     0.130000
    0.400000    -0.250000     0.110000
vibration     8
    0.030000     0.130000     0.000000
   -0.120000     0.000000     0.010000
   -0.020000     0.000000     0.000000
    0.030000    -0.130000    -0.010000
   -0.270000    -0.260000    -0.020000
    0.440000     0.070000     0.050000
    0.350000     0.030000    -0.030000
   -0.270000     0.260000    -0.010000
    0.440000    -0.070000     0.050000
    0.360000    -0.030000    -0.030000
vibration     9
   -0.060000     0.110000     0.000000
    0.000000    -0.040000     0.000000
    0.000000    -0.100000     0.000000
    0.060000     0.110000     0.000000
   -0.390000    -0.320000    -0.020000
    0.360000     0.030000     0.070000
    0.290000    -0.040000    -0.050000
    0.390000    -0.320000     0.020000
   -0.360000     0.030000    -0.070000
   -0.290000    -0.040000     0.050000
vibration    10
    0.000000     0.010000     0.130000
    0.000000     0.000000    -0.230000
    0.000000     0.000000     0.040000
    0.000000    -0.010000     0.130000
    0.050000    -0.010000    -0.280000
    0.300000     0.270000    -0.130000
   -0.340000    -0.270000    -0.080000
    0.050000     0.010000    -0.280000
    0.300000    -0.270000    -0.130000
   -0.340000     0.270000    -0.080000
vibration    11
   -0.100000     0.050000     0.000000
    0.360000     0.000000     0.010000
   -0.060000     0.000000     0.000000
   -0.100000    -0.050000     0.000000
   -0.440000    -0.380000    -0.010000
   -0.010000    -0.120000     0.130000
   -0.020000    -0.190000    -0.110000
   -0.440000     0.380000    -0.010000
   -0.010000     0.120000     0.130000
   -0.020000     0.190000    -0.110000
vibration    12
    0.080000     0.060000     0.000000
    0.000000     0.000000     0.000000
    0.000000     0.000000     0.000000
   -0.080000     0.060000     0.000000
   -0.200000    -0.280000     0.050000
   -0.320000    -0.170000     0.190000
   -0.330000    -0.200000    -0.180000
    0.210000    -0.290000    -0.050000
    0.340000    -0.170000    -0.200000
    0.350000    -0.200000     0.190000
vibration    13
    0.110000     0.060000     0.000000
   -0.080000     0.000000     0.000000
    0.010000     0.000000     0.000000
    0.110000    -0.050000     0.000000
   -0.170000    -0.280000     0.060000
   -0.370000    -0.150000     0.170000
   -0.390000    -0.170000    -0.170000
   -0.160000     0.270000     0.060000
   -0.350000     0.140000     0.160000
   -0.370000     0.160000    -0.160000
vibration    14
    0.030000    -0.030000     0.000000
    0.020000     0.000000     0.010000
   -0.010000     0.000000     0.000000
    0.030000     0.030000     0.000000
   -0.170000    -0.260000     0.030000
   -0.090000     0.310000    -0.300000
   -0.130000     0.380000     0.210000
   -0.170000     0.260000     0.040000
   -0.090000    -0.310000    -0.300000
   -0.130000    -0.380000     0.210000
vibration    15
    0.010000    -0.020000    -0.040000
    0.000000     0.010000     0.000000
    0.000000    -0.020000     0.000000
   -0.010000    -0.020000     0.040000
   -0.100000    -0.050000     0.480000
    0.250000     0.030000    -0.060000
   -0.330000     0.270000     0.100000
    0.100000    -0.050000    -0.480000
   -0.250000     0.030000     0.060000
    0.330000     0.270000    -0.100000
vibration    16
   -0.030000     0.020000    -0.020000
    0.000000    -0.020000     0.000000
    0.000000     0.030000     0.000000
    0.030000     0.020000     0.020000
    0.150000     0.270000     0.200000
    0.250000    -0.330000     0.300000
    0.010000    -0.280000    -0.170000
   -0.150000     0.270000    -0.200000
   -0.250000    -0.330000    -0.300000
   -0.010000    -0.280000     0.170000
vibration    17
   -0.010000    -0.010000    -0.030000
    0.010000     0.000000    -0.030000
    0.000000     0.000000     0.000000
   -0.010000     0.010000    -0.030000
   -0.020000     0.080000     0.500000
    0.350000    -0.090000     0.070000
   -0.320000     0.100000     0.010000
   -0.020000    -0.080000     0.500000
    0.350000     0.090000     0.070000
   -0.320000    -0.100000     0.010000
vibration    18
    0.000000    -0.040000     0.000000
    0.000000     0.710000     0.000000
    0.000000    -0.460000     0.000000
    0.000000    -0.040000     0.000000
    0.160000     0.210000    -0.010000
   -0.100000    -0.140000     0.110000
   -0.050000    -0.150000    -0.080000
   -0.160000     0.210000     0.010000
    0.100000    -0.140000    -0.110000
    0.050000    -0.150000     0.080000
vibration    19
   -0.020000    -0.030000     0.010000
    0.000000     0.000000     0.000000
    0.000000     0.000000     0.000000
   -0.020000     0.030000     0.010000
    0.210000    -0.170000     0.030000
   -0.010000     0.290000     0.320000
    0.040000     0.240000    -0.430000
    0.210000     0.170000     0.030000
   -0.010000    -0.290000     0.320000
    0.040000    -0.230000    -0.420000
vibration    20
    0.020000     0.030000    -0.010000
    0.000000     0.000000     0.000000
    0.000000     0.000000     0.000000
   -0.020000     0.030000     0.010000
   -0.210000     0.180000    -0.030000
    0.010000    -0.280000    -0.310000
   -0.040000    -0.240000     0.430000
    0.220000     0.180000     0.030000
   -0.010000    -0.280000     0.310000
    0.040000    -0.240000    -0.430000
vibration    21
    0.000000    -0.010000    -0.060000
    0.000000     0.000000     0.000000
    0.000000     0.000000     0.000000
    0.000000    -0.010000     0.060000
    0.050000    -0.040000    -0.010000
   -0.010000     0.370000     0.380000
   -0.040000    -0.240000     0.410000
   -0.050000    -0.040000     0.010000
    0.010000     0.360000    -0.370000
    0.040000    -0.240000    -0.400000
vibration    22
    0.000000     0.010000     0.060000
    0.000000     0.000000     0.000000
    0.000000     0.000000     0.000000
    0.000000    -0.010000     0.060000
   -0.040000     0.030000     0.010000
    0.010000    -0.360000    -0.360000
    0.040000     0.240000    -0.400000
   -0.040000    -0.040000     0.010000
    0.010000     0.360000    -0.370000
    0.040000    -0.250000    -0.410000
vibration    23
   -0.040000     0.050000     0.000000
    0.000000     0.000000     0.000000
    0.000000     0.000000     0.000000
   -0.040000    -0.050000     0.000000
    0.490000    -0.380000     0.070000
    0.000000    -0.130000    -0.150000
   -0.020000    -0.070000     0.130000
    0.530000     0.420000     0.080000
    0.000000     0.150000    -0.170000
   -0.020000     0.070000     0.150000
vibration    24
   -0.040000     0.050000     0.000000
    0.000000     0.000000     0.000000
    0.000000     0.000000     0.000000
    0.040000     0.050000     0.000000
    0.530000    -0.420000     0.080000
    0.000000    -0.150000    -0.170000
   -0.020000    -0.080000     0.150000
   -0.480000    -0.380000    -0.070000
    0.000000    -0.140000     0.160000
    0.020000    -0.070000    -0.140000
