 Entering Gaussian System, Link 0=/usr/local/g03/g03
 Initial command:
 /usr/local/g03/l1.exe /home/chaquin/ENSEIGNEMENT/Gau-1091.inp -scrdir=/home/chaquin/ENSEIGNEMENT/
 Entering Link 1 = /usr/local/g03/l1.exe PID=      1097.
  
 Copyright (c) 1988,1990,1992,1993,1995,1998,2003,2004, Gaussian, Inc.
                  All Rights Reserved.
  
 This is the Gaussian(R) 03 program.  It is based on the
 the Gaussian(R) 98 system (copyright 1998, Gaussian, Inc.),
 the Gaussian(R) 94 system (copyright 1995, Gaussian, Inc.),
 the Gaussian 92(TM) system (copyright 1992, Gaussian, Inc.),
 the Gaussian 90(TM) system (copyright 1990, Gaussian, Inc.),
 the Gaussian 88(TM) system (copyright 1988, Gaussian, Inc.),
 the Gaussian 86(TM) system (copyright 1986, Carnegie Mellon
 University), and the Gaussian 82(TM) system (copyright 1983,
 Carnegie Mellon University). Gaussian is a federally registered
 trademark of Gaussian, Inc.
  
 This software contains proprietary and confidential information,
 including trade secrets, belonging to Gaussian, Inc.
  
 This software is provided under written license and may be
 used, copied, transmitted, or stored only in accord with that
 written license.
  
 The following legend is applicable only to US Government
 contracts under FAR:
  
                    RESTRICTED RIGHTS LEGEND
  
 Use, reproduction and disclosure by the US Government is
 subject to restrictions as set forth in subparagraphs (a)
 and (c) of the Commercial Computer Software - Restricted
 Rights clause in FAR 52.227-19.
  
 Gaussian, Inc.
 340 Quinnipiac St., Bldg. 40, Wallingford CT 06492
  
  
 ---------------------------------------------------------------
 Warning -- This program may not be used in any manner that
 competes with the business of Gaussian, Inc. or will provide
 assistance to any competitor of Gaussian, Inc.  The licensee
 of this program is prohibited from giving any competitor of
 Gaussian, Inc. access to this program.  By using this program,
 the user acknowledges that Gaussian, Inc. is engaged in the
 business of creating and licensing software in the field of
 computational chemistry and represents and warrants to the
 licensee that it is not a competitor of Gaussian, Inc. and that
 it will not use this program in any manner prohibited above.
 ---------------------------------------------------------------
  

 Cite this work as:
 Gaussian 03, Revision C.02,
 M. J. Frisch, G. W. Trucks, H. B. Schlegel, G. E. Scuseria, 
 M. A. Robb, J. R. Cheeseman, J. A. Montgomery, Jr., T. Vreven, 
 K. N. Kudin, J. C. Burant, J. M. Millam, S. S. Iyengar, J. Tomasi, 
 V. Barone, B. Mennucci, M. Cossi, G. Scalmani, N. Rega, 
 G. A. Petersson, H. Nakatsuji, M. Hada, M. Ehara, K. Toyota, 
 R. Fukuda, J. Hasegawa, M. Ishida, T. Nakajima, Y. Honda, O. Kitao, 
 H. Nakai, M. Klene, X. Li, J. E. Knox, H. P. Hratchian, J. B. Cross, 
 C. Adamo, J. Jaramillo, R. Gomperts, R. E. Stratmann, O. Yazyev, 
 A. J. Austin, R. Cammi, C. Pomelli, J. W. Ochterski, P. Y. Ayala, 
 K. Morokuma, G. A. Voth, P. Salvador, J. J. Dannenberg, 
 V. G. Zakrzewski, S. Dapprich, A. D. Daniels, M. C. Strain, 
 O. Farkas, D. K. Malick, A. D. Rabuck, K. Raghavachari, 
 J. B. Foresman, J. V. Ortiz, Q. Cui, A. G. Baboul, S. Clifford, 
 J. Cioslowski, B. B. Stefanov, G. Liu, A. Liashenko, P. Piskorz, 
 I. Komaromi, R. L. Martin, D. J. Fox, T. Keith, M. A. Al-Laham, 
 C. Y. Peng, A. Nanayakkara, M. Challacombe, P. M. W. Gill, 
 B. Johnson, W. Chen, M. W. Wong, C. Gonzalez, and J. A. Pople, 
 Gaussian, Inc., Wallingford CT, 2004.
 
 ******************************************
 Gaussian 03:  AM64L-G03RevC.02 12-Jun-2004
                 7-Apr-2013 
 ******************************************
 %chk=geom
 ----------------------------------------------------
 # B3LYP 6-311+G** geom=checkpoint freq pop=none test
 ----------------------------------------------------
 1/10=4,29=2,30=1,38=1/1,3;
 2/40=1/2;
 3/5=4,6=6,7=111,11=2,16=1,25=1,30=1,74=-5/1,2,3;
 4//1;
 5/5=2,38=5/2;
 8/6=4,10=90,11=11/1;
 11/6=1,8=1,9=11,15=111,16=1/1,2,10;
 10/6=1/2;
 7/8=1,10=1,25=1/1,2,3,16;
 1/10=4,30=1/3;
 99//99;
 ------------------------------
 *** Vibrations CH3-CN **** 0 1
 ------------------------------
 Z-Matrix taken from the checkpoint file:
 geom.chk
 Charge =  0 Multiplicity = 1
 C
 C,1,cc2
 N,2,nc3,1,ncc3
 H,1,hc4,2,hcc4,3,dih4,0
 H,1,hc5,2,hcc5,3,dih5,0
 H,1,hc6,2,hcc6,3,dih6,0
      Variables:
 cc2=1.4568598
 nc3=1.15263333
 ncc3=179.98667022
 hc4=1.09178797
 hcc4=110.15383296
 dih4=-59.99262123
 hc5=1.09178797
 hcc5=110.15383296
 dih5=59.99262123
 hc6=1.09172943
 hcc6=110.15643136
 dih6=180.
 Recover connectivity data from disk.

 GradGradGradGradGradGradGradGradGradGradGradGradGradGradGradGradGradGrad
 Berny optimization.
 Initialization pass.
                       ----------------------------
                       !    Initial Parameters    !
                       ! (Angstroms and Degrees)  !
 ----------------------                            ----------------------
 !      Name          Value   Derivative information (Atomic Units)     !
 ------------------------------------------------------------------------
 !       cc2         1.4569   calculate D2E/DX2 analytically            !
 !       nc3         1.1526   calculate D2E/DX2 analytically            !
 !      ncc3       179.9867   calculate D2E/DX2 analytically            !
 !       hc4         1.0918   calculate D2E/DX2 analytically            !
 !      hcc4       110.1538   calculate D2E/DX2 analytically            !
 !      dih4       -59.9926   calculate D2E/DX2 analytically            !
 !       hc5         1.0918   calculate D2E/DX2 analytically            !
 !      hcc5       110.1538   calculate D2E/DX2 analytically            !
 !      dih5        59.9926   calculate D2E/DX2 analytically            !
 !       hc6         1.0917   calculate D2E/DX2 analytically            !
 !      hcc6       110.1564   calculate D2E/DX2 analytically            !
 !      dih6       180.0      calculate D2E/DX2 analytically            !
 ------------------------------------------------------------------------
 Trust Radius=3.00D-01 FncErr=1.00D-07 GrdErr=1.00D-07
 Number of steps in this run=   2 maximum allowed number of steps=   2.
 GradGradGradGradGradGradGradGradGradGradGradGradGradGradGradGradGradGrad

                          Input orientation:                          
 ---------------------------------------------------------------------
 Center     Atomic     Atomic              Coordinates (Angstroms)
 Number     Number      Type              X           Y           Z
 ---------------------------------------------------------------------
    1          6             0       -0.000099    0.000000   -1.176322
    2          6             0       -0.000099    0.000000    0.280538
    3          7             0        0.000169    0.000000    1.433171
    4          1             0        0.512485    0.887557   -1.552489
    5          1             0        0.512485   -0.887557   -1.552489
    6          1             0       -1.024966    0.000000   -1.552515
 ---------------------------------------------------------------------
                    Distance matrix (angstroms):
                    1          2          3          4          5
     1  C    0.000000
     2  C    1.456860   0.000000
     3  N    2.609493   1.152633   0.000000
     4  H    1.091788   2.100116   3.156642   0.000000
     5  H    1.091788   2.100116   3.156642   1.775114   0.000000
     6  H    1.091729   2.100103   3.156774   1.775250   1.775250
                    6
     6  H    0.000000
 Stoichiometry    C2H3N
 Framework group  C1[X(C2H3N)]
 Deg. of freedom    12
 Full point group                 C1      NOp   1
 Largest Abelian subgroup         C1      NOp   1
 Largest concise Abelian subgroup C1      NOp   1
                         Standard orientation:                         
 ---------------------------------------------------------------------
 Center     Atomic     Atomic              Coordinates (Angstroms)
 Number     Number      Type              X           Y           Z
 ---------------------------------------------------------------------
    1          6             0        1.176322    0.000007    0.000000
    2          6             0       -0.280538    0.000121    0.000000
    3          7             0       -1.433171   -0.000057    0.000000
    4          1             0        1.552449   -0.512591    0.887566
    5          1             0        1.552449   -0.512621   -0.887548
    6          1             0        1.552595    1.024845   -0.000018
 ---------------------------------------------------------------------
 Rotational constants (GHZ):    159.1238291      9.2450321      9.2449774
 Standard basis: 6-311+G(d,p) (5D, 7F)
 There are    84 symmetry adapted basis functions of A   symmetry.
 Integral buffers will be    131072 words long.
 Raffenetti 2 integral format.
 Two-electron integral symmetry is turned on.
    84 basis functions,   132 primitive gaussians,    87 cartesian basis functions
    11 alpha electrons       11 beta electrons
       nuclear repulsion energy        58.5505693973 Hartrees.
 NAtoms=    6 NActive=    6 NUniq=    6 SFac= 1.00D+00 NAtFMM=   60 Big=F
 One-electron integrals computed using PRISM.
 NBasis=    84 RedAO= T  NBF=    84
 NBsUse=    84 1.00D-06 NBFU=    84
 Harris functional with IExCor=  402 diagonalized for initial guess.
 ExpMin= 4.38D-02 ExpMax= 6.29D+03 ExpMxC= 9.49D+02 IAcc=2 IRadAn=         4 AccDes= 0.00D+00
 HarFok:  IExCor= 402 AccDes= 0.00D+00 IRadAn=         4 IDoV=1
 ScaDFX=  1.000000  1.000000  1.000000  1.000000
 Initial guess orbital symmetries:
       Occupied  (A) (A) (A) (A) (A) (A) (A) (A) (A) (A) (A)
       Virtual   (A) (A) (A) (A) (A) (A) (A) (A) (A) (A) (A) (A)
                 (A) (A) (A) (A) (A) (A) (A) (A) (A) (A) (A) (A)
                 (A) (A) (A) (A) (A) (A) (A) (A) (A) (A) (A) (A)
                 (A) (A) (A) (A) (A) (A) (A) (A) (A) (A) (A) (A)
                 (A) (A) (A) (A) (A) (A) (A) (A) (A) (A) (A) (A)
                 (A) (A) (A) (A) (A) (A) (A) (A) (A) (A) (A) (A)
                 (A)
 The electronic state of the initial guess is 1-A.
 Requested convergence on RMS density matrix=1.00D-08 within 128 cycles.
 Requested convergence on MAX density matrix=1.00D-06.
 Requested convergence on             energy=1.00D-06.
 No special actions if energy rises.
 SCF Done:  E(RB+HF-LYP) =  -132.796157192     A.U. after   11 cycles
             Convg  =    0.1141D-08             -V/T =  2.0044
             S**2   =   0.0000
 Range of M.O.s used for correlation:     1    84
 NBasis=    84 NAE=    11 NBE=    11 NFC=     0 NFV=     0
 NROrb=     84 NOA=    11 NOB=    11 NVA=    73 NVB=    73

 **** Warning!!: The largest alpha MO coefficient is  0.48618300D+02

 Symmetrizing basis deriv contribution to polar:
 IMax=3 JMax=2 DiffMx= 0.00D+00
 G2DrvN: will do    7 centers at a time, making    1 passes doing MaxLOS=2.
 FoFDir/FoFCou used for L=0 through L=2.
 DoAtom=TTTTTT
          Differentiating once with respect to electric field.
                with respect to dipole field.
          Differentiating once with respect to nuclear coordinates.
 Integrals replicated using symmetry in FoFDir.
 MinBra= 0 MaxBra= 2 Meth= 1.
 IRaf=       0 NMat=  21 IRICut=      21 DoRegI=T DoRafI=T ISym2E= 2 JSym2E=2.
          There are  21 degrees of freedom in the 1st order CPHF.
    18 vectors were produced by pass  0.
 AX will form  18 AO Fock derivatives at one time.
    18 vectors were produced by pass  1.
    18 vectors were produced by pass  2.
    18 vectors were produced by pass  3.
    18 vectors were produced by pass  4.
    10 vectors were produced by pass  5.
     5 vectors were produced by pass  6.
     1 vectors were produced by pass  7.
 Inv2:  IOpt= 1 Iter= 1 AM= 2.47D-15 Conv= 1.00D-12.
 Inverted reduced A of dimension  106 with in-core refinement.
 Isotropic polarizability for W=    0.000000       26.89 Bohr**3.
 End of Minotr Frequency-dependent properties file   721 does not exist.
 Full mass-weighted force constant matrix:
 Low frequencies ---   -0.0006   -0.0006   -0.0003    5.2665    7.1954   17.3227
 Low frequencies ---  381.8740  381.9226  929.0312
 Diagonal vibrational polarizability:
        0.1571598       0.2337968       0.2338372
 Harmonic frequencies (cm**-1), IR intensities (KM/Mole), Raman scattering
 activities (A**4/AMU), depolarization ratios for plane and unpolarized
 incident light, reduced masses (AMU), force constants (mDyne/A),
 and normal coordinates:
                     1                      2                      3
                     A                      A                      A
 Frequencies --   381.8739               381.9225               929.0312
 Red. masses --     3.8130                 3.8140                 4.6080
 Frc consts  --     0.3276                 0.3278                 2.3433
 IR Inten    --     0.1588                 0.1592                 1.5730
 Atom AN      X      Y      Z        X      Y      Z        X      Y      Z
   1   6     0.00   0.00  -0.08     0.00  -0.08   0.00     0.43   0.00   0.00
   2   6     0.00   0.00   0.43     0.00   0.43   0.00    -0.19   0.00   0.00
   3   7     0.00   0.00  -0.24     0.00  -0.24   0.00    -0.30   0.00   0.00
   4   1     0.50   0.00  -0.29    -0.29  -0.30   0.00     0.48   0.01  -0.01
   5   1    -0.50   0.00  -0.29    -0.29  -0.30   0.00     0.48   0.01   0.01
   6   1     0.00   0.00  -0.30     0.57  -0.29   0.00     0.48  -0.02   0.00
                     4                      5                      6
                     A                      A                      A
 Frequencies --  1060.8166              1060.9862              1411.1541
 Red. masses --     1.4457                 1.4455                 1.2312
 Frc consts  --     0.9586                 0.9587                 1.4446
 IR Inten    --     2.1311                 2.1219                 3.0338
 Atom AN      X      Y      Z        X      Y      Z        X      Y      Z
   1   6     0.00   0.00   0.16     0.00   0.16   0.00     0.14   0.00   0.00
   2   6     0.00   0.00  -0.12     0.00  -0.12   0.00     0.00   0.00   0.00
   3   7     0.00   0.00   0.02     0.00   0.02   0.00    -0.01   0.00   0.00
   4   1     0.61  -0.11  -0.18    -0.35  -0.30  -0.11    -0.52  -0.12   0.20
   5   1    -0.61   0.11  -0.18    -0.35  -0.30   0.11    -0.52  -0.12  -0.20
   6   1     0.00   0.00  -0.37     0.70  -0.12   0.00    -0.52   0.23   0.00
                     7                      8                      9
                     A                      A                      A
 Frequencies --  1474.6279              1474.7131              2362.2852
 Red. masses --     1.0380                 1.0380                12.5579
 Frc consts  --     1.3299                 1.3301                41.2887
 IR Inten    --    12.1327                12.1464                11.8810
 Atom AN      X      Y      Z        X      Y      Z        X      Y      Z
   1   6     0.00   0.00  -0.05     0.00  -0.05   0.00    -0.10   0.00   0.00
   2   6     0.00   0.00  -0.02     0.00  -0.02   0.00     0.80   0.00   0.00
   3   7     0.00   0.00   0.00     0.00   0.00   0.00    -0.58   0.00   0.00
   4   1     0.33   0.38   0.05    -0.19   0.48   0.38    -0.06  -0.01   0.01
   5   1    -0.33  -0.38   0.05    -0.19   0.48  -0.38    -0.06  -0.01  -0.01
   6   1     0.00   0.00   0.70     0.39  -0.17   0.00    -0.06   0.01   0.00
                    10                     11                     12
                     A                      A                      A
 Frequencies --  3047.5026              3117.4341              3117.8663
 Red. masses --     1.0336                 1.1021                 1.1021
 Frc consts  --     5.6558                 6.3103                 6.3121
 IR Inten    --     3.3889                 1.2362                 1.2297
 Atom AN      X      Y      Z        X      Y      Z        X      Y      Z
   1   6     0.05   0.00   0.00     0.00   0.00   0.09     0.00   0.09   0.00
   2   6     0.00   0.00   0.00     0.00   0.00   0.00     0.00   0.00   0.00
   3   7     0.00   0.00   0.00     0.00   0.00   0.00     0.00   0.00   0.00
   4   1    -0.19   0.27  -0.47    -0.25   0.34  -0.57     0.14  -0.17   0.34
   5   1    -0.19   0.27   0.47     0.25  -0.34  -0.57     0.14  -0.17  -0.34
   6   1    -0.19  -0.54   0.00     0.00   0.00   0.02    -0.28  -0.76   0.00

 -------------------
 - Thermochemistry -
 -------------------
 Temperature   298.150 Kelvin.  Pressure   1.00000 Atm.
 Atom  1 has atomic number  6 and mass  12.00000
 Atom  2 has atomic number  6 and mass  12.00000
 Atom  3 has atomic number  7 and mass  14.00307
 Atom  4 has atomic number  1 and mass   1.00783
 Atom  5 has atomic number  1 and mass   1.00783
 Atom  6 has atomic number  1 and mass   1.00783
 Molecular mass:    41.02655 amu.
 Principal axes and moments of inertia in atomic units:
                           1         2         3
     EIGENVALUES --    11.34174 195.21200 195.21316
           X            1.00000  -0.00001   0.00000
           Y            0.00001   1.00000   0.00000
           Z            0.00000   0.00000   1.00000
 This molecule is an asymmetric top.
 Rotational symmetry number  1.
 Rotational temperatures (Kelvin)      7.63673     0.44369     0.44369
 Rotational constants (GHZ):         159.12383     9.24503     9.24498
 Zero-point vibrational energy     118551.2 (Joules/Mol)
                                   28.33442 (Kcal/Mol)
 Warning -- explicit consideration of   2 degrees of freedom as
           vibrations may cause significant error
 Vibrational temperatures:    549.43   549.50  1336.67  1526.28  1526.52
          (Kelvin)           2030.33  2121.66  2121.78  3398.80  4384.67
                             4485.29  4485.91
 
 Zero-point correction=                           0.045154 (Hartree/Particle)
 Thermal correction to Energy=                    0.048766
 Thermal correction to Enthalpy=                  0.049710
 Thermal correction to Gibbs Free Energy=         0.021137
 Sum of electronic and zero-point Energies=           -132.751003
 Sum of electronic and thermal Energies=              -132.747391
 Sum of electronic and thermal Enthalpies=            -132.746447
 Sum of electronic and thermal Free Energies=         -132.775020
 
                     E (Thermal)             CV                S
                      KCal/Mol        Cal/Mol-Kelvin    Cal/Mol-Kelvin
 Total                   30.601             10.340             60.136
 Electronic               0.000              0.000              0.000
 Translational            0.889              2.981             37.062
 Rotational               0.889              2.981             20.697
 Vibrational             28.824              4.378              2.378
 Vibration  1             0.751              1.509              1.032
 Vibration  2             0.751              1.509              1.032
                       Q            Log10(Q)             Ln(Q)
 Total Bot       0.189484D-09         -9.722427        -22.386716
 Total V=0       0.111384D+12         11.046821         25.436246
 Vib (Bot)       0.246505D-20        -20.608174        -47.452074
 Vib (Bot)  1    0.472848D+00         -0.325278         -0.748981
 Vib (Bot)  2    0.472772D+00         -0.325348         -0.749142
 Vib (V=0)       0.144902D+01          0.161075          0.370888
 Vib (V=0)  1    0.118818D+01          0.074881          0.172419
 Vib (V=0)  2    0.118812D+01          0.074861          0.172375
 Electronic      0.100000D+01          0.000000          0.000000
 Translational   0.103289D+08          7.014053         16.150453
 Rotational      0.744207D+04          3.871694          8.914905
 ***** Axes restored to original set *****
 -------------------------------------------------------------------
 Center     Atomic                   Forces (Hartrees/Bohr)
 Number     Number              X              Y              Z
 -------------------------------------------------------------------
    1          6           0.000037315    0.000000000    0.000332867
    2          6           0.000023085   -0.000000001   -0.000188165
    3          7          -0.000011063    0.000000000    0.000022278
    4          1          -0.000013854    0.000004710   -0.000050855
    5          1          -0.000013855   -0.000004710   -0.000050855
    6          1          -0.000021628    0.000000000   -0.000065269
 -------------------------------------------------------------------
 Cartesian Forces:  Max     0.000332867 RMS     0.000094009
 ------------------------------------------------------------------------
           Internal Coordinate Forces (Hartree/Bohr or radian)
 Cent Atom N1     Length/X     N2     Alpha/Y      N3      Beta/Z       J
 ------------------------------------------------------------------------
   1  C 
   2  C     1  -0.000166(   1)
   3  N     2   0.000022(   2)  1   0.000024(   6)
   4  H     1   0.000015(   3)  2   0.000101(   7)  3  -0.000028(  10)  0
   5  H     1   0.000015(   4)  2   0.000101(   8)  3   0.000028(  11)  0
   6  H     1   0.000043(   5)  2   0.000111(   9)  3   0.000000(  12)  0
 ------------------------------------------------------------------------
 Internal  Forces:  Max     0.000165887 RMS     0.000073571

 GradGradGradGradGradGradGradGradGradGradGradGradGradGradGradGradGradGrad
 Berny optimization.
 Search for a local minimum.
 Step number   1 out of a maximum of   2
 All quantities printed in internal units (Hartrees-Bohrs-Radians)
 Second derivative matrix not updated -- analytic derivatives used.
 The second derivative matrix:
                          cc2       nc3      ncc3       hc4      hcc4
           cc2          0.33980
           nc3          0.00443   1.25179
           ncc3         0.00002   0.00002   0.08820
           hc4          0.00788  -0.00258  -0.00081   0.33956
           hcc4         0.03753   0.00200  -0.00975   0.00082   0.21815
           dih4         0.00001   0.00000  -0.00368  -0.00001  -0.00005
           hc5          0.00788  -0.00258  -0.00081   0.00286  -0.00757
           hcc5         0.03753   0.00200  -0.00975  -0.00757   0.02995
           dih5        -0.00001   0.00000   0.00368   0.01415  -0.05417
           hc6          0.00787  -0.00258   0.00162   0.00285  -0.00757
           hcc6         0.03754   0.00200   0.01951  -0.00757   0.02996
           dih6         0.00000   0.00000   0.00000  -0.01414   0.05420
                         dih4       hc5      hcc5      dih5       hc6
           dih4         0.16334
           hc5         -0.01415   0.33956
           hcc5         0.05417   0.00082   0.21815
           dih5        -0.08168   0.00001   0.00005   0.16334
           hc6          0.01414   0.00285  -0.00757  -0.01414   0.33967
           hcc6        -0.05420  -0.00757   0.02996   0.05420   0.00085
           dih6        -0.08162   0.01414  -0.05420  -0.08162   0.00000
                         hcc6      dih6
           hcc6         0.21818
           dih6         0.00000   0.16332
     Eigenvalues ---    0.00005   0.07992   0.11641   0.12316   0.23360
     Eigenvalues ---    0.30778   0.30932   0.34564   0.34581   0.34819
     Eigenvalues ---    0.38133   1.25185
 Angle between quadratic step and forces=  12.97 degrees.
 Linear search not attempted -- first point.
 Variable       Old X    -DE/DX   Delta X   Delta X   Delta X     New X
                                 (Linear)    (Quad)   (Total)
   cc2        2.75307  -0.00017   0.00000  -0.00065  -0.00065   2.75242
   nc3        2.17816   0.00002   0.00000   0.00002   0.00002   2.17818
   ncc3       3.14136   0.00002   0.00000   0.00029   0.00029   3.14165
   hc4        2.06318   0.00001   0.00000   0.00007   0.00007   2.06325
   hcc4       1.92255   0.00010   0.00000   0.00051   0.00051   1.92305
   dih4      -1.04707  -0.00003   0.00000  -0.00012  -0.00012  -1.04719
   hc5        2.06318   0.00001   0.00000   0.00007   0.00007   2.06325
   hcc5       1.92255   0.00010   0.00000   0.00051   0.00051   1.92305
   dih5       1.04707   0.00003   0.00000   0.00016   0.00016   1.04723
   hc6        2.06307   0.00004   0.00000   0.00017   0.00017   2.06324
   hcc6       1.92259   0.00011   0.00000   0.00039   0.00039   1.92298
   dih6       3.14159   0.00000   0.00000   0.00002   0.00002   3.14161
         Item               Value     Threshold  Converged?
 Maximum Force            0.000166     0.000450     YES
 RMS     Force            0.000074     0.000300     YES
 Maximum Displacement     0.000650     0.001800     YES
 RMS     Displacement     0.000322     0.001200     YES
 Predicted change in Energy=-1.387024D-07
 Optimization completed.
    -- Stationary point found.
                       ----------------------------
                       !   Optimized Parameters   !
                       ! (Angstroms and Degrees)  !
 ----------------------                            ----------------------
 !      Name          Value   Derivative information (Atomic Units)     !
 ------------------------------------------------------------------------
 !       cc2         1.4569   -DE/DX =   -0.0002                        !
 !       nc3         1.1526   -DE/DX =    0.0                           !
 !      ncc3       179.9867   -DE/DX =    0.0                           !
 !       hc4         1.0918   -DE/DX =    0.0                           !
 !      hcc4       110.1538   -DE/DX =    0.0001                        !
 !      dih4       -59.9926   -DE/DX =    0.0                           !
 !       hc5         1.0918   -DE/DX =    0.0                           !
 !      hcc5       110.1538   -DE/DX =    0.0001                        !
 !      dih5        59.9926   -DE/DX =    0.0                           !
 !       hc6         1.0917   -DE/DX =    0.0                           !
 !      hcc6       110.1564   -DE/DX =    0.0001                        !
 !      dih6       180.0      -DE/DX =    0.0                           !
 ------------------------------------------------------------------------
 GradGradGradGradGradGradGradGradGradGradGradGradGradGradGradGradGradGrad


 Test job not archived.
 1\1\GINC-CLUSTER-BIO\Freq\RB3LYP\6-311+G(d,p)\C2H3N1\CHAQUIN\07-Apr-20
 13\1\\# B3LYP 6-311+G** GEOM=CHECKPOINT FREQ POP=NONE TEST\\*** Vibrat
 ions CH3-CN **** 0 1\\0,1\C\C,1,cc2\N,2,nc3,1,ncc3\H,1,hc4,2,hcc4,3,di
 h4,0\H,1,hc5,2,hcc5,3,dih5,0\H,1,hc6,2,hcc6,3,dih6,0\\cc2=1.4568598\nc
 3=1.15263333\ncc3=179.98667022\hc4=1.09178797\hcc4=110.15383296\dih4=-
 59.99262123\hc5=1.09178797\hcc5=110.15383296\dih5=59.99262123\hc6=1.09
 172943\hcc6=110.15643136\dih6=180.\\Version=AM64L-G03RevC.02\State=1-A
 \HF=-132.7961572\RMSD=1.141e-09\RMSF=9.401e-05\Dipole=-0.0001027,0.,-1
 .5942759\DipoleDeriv=0.135809,0.,0.0001168,0.,0.135845,0.,-0.0000537,0
 .,0.0053481,0.0272628,0.,-0.0001043,0.,0.0273284,0.,-0.0000895,0.,0.25
 69795,-0.312948,0.,0.0000378,0.,-0.31297,0.,0.0001311,0.,-0.3292419,0.
 0829788,-0.0572375,0.0217846,-0.0572281,0.0168989,0.0377735,0.0033643,
 0.0058801,0.022295,0.0829788,0.0572375,0.0217846,0.0572281,0.0168989,-
 0.0377735,0.0033643,-0.0058801,0.022295,-0.0160815,0.,-0.0436196,0.,0.
 1159988,0.,-0.0067166,0.,0.0223243\Polar=20.8594412,0.,20.8595644,0.00
 22719,0.,38.9559348\PG=C01 [X(C2H3N1)]\NImag=0\\0.54371604,0.,0.543497
 98,0.00010592,0.,0.50331116,-0.07163858,0.,-0.00001940,0.10595744,0.,-
 0.07162850,0.,0.,0.10595721,-0.00001667,0.,-0.27605802,0.00028240,0.,1
 .58272510,0.01889604,0.,0.00000556,-0.03778838,0.,-0.00028250,0.018579
 77,0.,0.01889429,0.,0.,-0.03778934,0.,0.,0.01858196,-0.00001085,0.,-0.
 00436809,-0.00025931,0.,-1.24735633,0.00027445,0.,1.25179005,-0.103741
 77,-0.10376020,0.04206420,-0.00068467,0.00318616,0.00194595,0.00055570
 ,-0.00078218,-0.00138074,0.10894370,-0.10375958,-0.22348179,0.07288392
 ,0.00319210,0.00299907,0.00335989,-0.00078271,-0.00034731,-0.00238695,
 0.11325266,0.23965868,0.04220284,0.07310373,-0.07428593,0.01766568,0.0
 3060258,-0.01976984,-0.00216474,-0.00375044,-0.00002129,-0.04678716,-0
 .08104007,0.08574088,-0.10374174,0.10376019,0.04206420,-0.00068466,-0.
 00318616,0.00194595,0.00055570,0.00078218,-0.00138074,0.00777316,-0.01
 271127,-0.00676660,0.10894367,0.10375957,-0.22348179,-0.07288393,-0.00
 319210,0.00299907,-0.00335989,0.00078271,-0.00034731,0.00238695,0.0127
 1128,-0.01972836,-0.00869753,-0.11325266,0.23965868,0.04220283,-0.0731
 0373,-0.07428593,0.01766569,-0.03060258,-0.01976984,-0.00216474,0.0037
 5044,-0.00002129,-0.00676660,0.00869753,0.00416856,-0.04678715,0.08104
 007,0.08574089,-0.28348999,0.00000001,-0.08422048,0.00483885,0.,-0.003
 87512,-0.00079884,0.,0.00275718,-0.01284613,0.00080880,-0.00415003,-0.
 01284612,-0.00080880,-0.00415003,0.30514223,0.,-0.04380019,0.,0.,-0.00
 253751,0.,0.,0.00100772,0.,-0.02460771,0.00089972,-0.01021827,0.024607
 72,0.00089972,0.01021826,0.,0.04353056,-0.08448407,0.,-0.07431318,-0.0
 3533506,0.,-0.01977107,0.00433196,0.,-0.00002306,0.01092435,-0.0015143
 1,0.00416761,0.01092434,0.00151432,0.00416761,0.09363847,0.,0.08577208
 \\-0.00003731,0.,-0.00033287,-0.00002309,0.,0.00018817,0.00001106,0.,-
 0.00002228,0.00001385,-0.00000471,0.00005086,0.00001386,0.00000471,0.0
 0005086,0.00002163,0.,0.00006527\\\@


 THERE IS AN OLD, OLD RECIPE IN MAINE FOR STEWING COOT. PLACE THE
 BIRD IN A KETTLE OF WATER WITH A RED BUILDING BRICK FREE OF MORTAR AND
 BLEMISHES. PARBOIL THE COOT AND BRICK TOGETHER FOR THREE HOURS.
 POUR OFF THE WATER, REFILL THE KETTLE, AND AGAIN PARBOIL FOR THREE HOURS.
 ONCE AGAIN POUR OFF THE WATER, FOR THE LAST TIME ADD FRESH WATER,
 AND LET THE COOT AND BRICK SIMMER TOGETHER OVERNIGHT. IN THE MORNING,
 THROW AWAY THE COOT AND EAT THE BRICK.
 Job cpu time:  0 days  0 hours  3 minutes 18.4 seconds.
 File lengths (MBytes):  RWF=     17 Int=      0 D2E=      0 Chk=     11 Scr=      1
 Normal termination of Gaussian 03 at Sun Apr  7 16:15:08 2013.
300.05user 7.39system 5:10.66elapsed 98%CPU (0avgtext+0avgdata 0maxresident)k
0inputs+0outputs (277major+3007100minor)pagefaults 0swaps
