 Entering Gaussian System, Link 0=/usr/local/g03/g03
 Initial command:
 /usr/local/g03/l1.exe /home/chaquin/ENSEIGNEMENT/Gau-1364.inp -scrdir=/home/chaquin/ENSEIGNEMENT/
 Entering Link 1 = /usr/local/g03/l1.exe PID=      1374.
  
 Copyright (c) 1988,1990,1992,1993,1995,1998,2003,2004, Gaussian, Inc.
                  All Rights Reserved.
  
 This is the Gaussian(R) 03 program.  It is based on the
 the Gaussian(R) 98 system (copyright 1998, Gaussian, Inc.),
 the Gaussian(R) 94 system (copyright 1995, Gaussian, Inc.),
 the Gaussian 92(TM) system (copyright 1992, Gaussian, Inc.),
 the Gaussian 90(TM) system (copyright 1990, Gaussian, Inc.),
 the Gaussian 88(TM) system (copyright 1988, Gaussian, Inc.),
 the Gaussian 86(TM) system (copyright 1986, Carnegie Mellon
 University), and the Gaussian 82(TM) system (copyright 1983,
 Carnegie Mellon University). Gaussian is a federally registered
 trademark of Gaussian, Inc.
  
 This software contains proprietary and confidential information,
 including trade secrets, belonging to Gaussian, Inc.
  
 This software is provided under written license and may be
 used, copied, transmitted, or stored only in accord with that
 written license.
  
 The following legend is applicable only to US Government
 contracts under FAR:
  
                    RESTRICTED RIGHTS LEGEND
  
 Use, reproduction and disclosure by the US Government is
 subject to restrictions as set forth in subparagraphs (a)
 and (c) of the Commercial Computer Software - Restricted
 Rights clause in FAR 52.227-19.
  
 Gaussian, Inc.
 340 Quinnipiac St., Bldg. 40, Wallingford CT 06492
  
  
 ---------------------------------------------------------------
 Warning -- This program may not be used in any manner that
 competes with the business of Gaussian, Inc. or will provide
 assistance to any competitor of Gaussian, Inc.  The licensee
 of this program is prohibited from giving any competitor of
 Gaussian, Inc. access to this program.  By using this program,
 the user acknowledges that Gaussian, Inc. is engaged in the
 business of creating and licensing software in the field of
 computational chemistry and represents and warrants to the
 licensee that it is not a competitor of Gaussian, Inc. and that
 it will not use this program in any manner prohibited above.
 ---------------------------------------------------------------
  

 Cite this work as:
 Gaussian 03, Revision C.02,
 M. J. Frisch, G. W. Trucks, H. B. Schlegel, G. E. Scuseria, 
 M. A. Robb, J. R. Cheeseman, J. A. Montgomery, Jr., T. Vreven, 
 K. N. Kudin, J. C. Burant, J. M. Millam, S. S. Iyengar, J. Tomasi, 
 V. Barone, B. Mennucci, M. Cossi, G. Scalmani, N. Rega, 
 G. A. Petersson, H. Nakatsuji, M. Hada, M. Ehara, K. Toyota, 
 R. Fukuda, J. Hasegawa, M. Ishida, T. Nakajima, Y. Honda, O. Kitao, 
 H. Nakai, M. Klene, X. Li, J. E. Knox, H. P. Hratchian, J. B. Cross, 
 C. Adamo, J. Jaramillo, R. Gomperts, R. E. Stratmann, O. Yazyev, 
 A. J. Austin, R. Cammi, C. Pomelli, J. W. Ochterski, P. Y. Ayala, 
 K. Morokuma, G. A. Voth, P. Salvador, J. J. Dannenberg, 
 V. G. Zakrzewski, S. Dapprich, A. D. Daniels, M. C. Strain, 
 O. Farkas, D. K. Malick, A. D. Rabuck, K. Raghavachari, 
 J. B. Foresman, J. V. Ortiz, Q. Cui, A. G. Baboul, S. Clifford, 
 J. Cioslowski, B. B. Stefanov, G. Liu, A. Liashenko, P. Piskorz, 
 I. Komaromi, R. L. Martin, D. J. Fox, T. Keith, M. A. Al-Laham, 
 C. Y. Peng, A. Nanayakkara, M. Challacombe, P. M. W. Gill, 
 B. Johnson, W. Chen, M. W. Wong, C. Gonzalez, and J. A. Pople, 
 Gaussian, Inc., Wallingford CT, 2004.
 
 ******************************************
 Gaussian 03:  AM64L-G03RevC.02 12-Jun-2004
                 7-Apr-2013 
 ******************************************
 %chk=geom
 ----------------------------------------------------
 # B3LYP 6-311+G** geom=checkpoint freq pop=none test
 ----------------------------------------------------
 1/10=4,29=2,30=1,38=1/1,3;
 2/40=1/2;
 3/5=4,6=6,7=111,11=2,16=1,25=1,30=1,74=-5/1,2,3;
 4//1;
 5/5=2,38=5/2;
 8/6=4,10=90,11=11/1;
 11/6=1,8=1,9=11,15=111,16=1/1,2,10;
 10/6=1/2;
 7/8=1,10=1,25=1/1,2,3,16;
 1/10=4,30=1/3;
 99//99;
 --------------------------------
 *** Vibrations CH3-COCl **** 0 1
 --------------------------------
 Redundant internal coordinates taken from checkpoint file:
 geom.chk
 Charge =  0 Multiplicity = 1
 C,0,-0.1506916526,-0.1748009224,-1.3815975906
 C,0,-0.0976062249,0.0037038029,0.1126143167
 O,0,1.1700073864,0.1728299528,0.5671908015
 O,0,-1.0518325219,0.0028409047,0.848706022
 H,0,0.8395660349,-0.1522548609,-1.8330782873
 H,0,-0.7702236626,0.6181305053,-1.8062223353
 H,0,-0.6397135954,-1.1257036263,-1.6031724575
 H,0,1.1147595725,0.2810438392,1.529198136
 Recover connectivity data from disk.

 GradGradGradGradGradGradGradGradGradGradGradGradGradGradGradGradGradGrad
 Berny optimization.
 Initialization pass.
                           ----------------------------
                           !    Initial Parameters    !
                           ! (Angstroms and Degrees)  !
 --------------------------                            --------------------------
 ! Name  Definition              Value          Derivative Info.                !
 --------------------------------------------------------------------------------
 ! R1    R(1,2)                  1.5058         calculate D2E/DX2 analytically  !
 ! R2    R(1,5)                  1.0886         calculate D2E/DX2 analytically  !
 ! R3    R(1,6)                  1.0922         calculate D2E/DX2 analytically  !
 ! R4    R(1,7)                  1.092          calculate D2E/DX2 analytically  !
 ! R5    R(2,3)                  1.3572         calculate D2E/DX2 analytically  !
 ! R6    R(2,4)                  1.2051         calculate D2E/DX2 analytically  !
 ! R7    R(3,8)                  0.9696         calculate D2E/DX2 analytically  !
 ! A1    A(2,1,5)              112.1505         calculate D2E/DX2 analytically  !
 ! A2    A(2,1,6)              108.6467         calculate D2E/DX2 analytically  !
 ! A3    A(2,1,7)              108.6852         calculate D2E/DX2 analytically  !
 ! A4    A(5,1,6)              109.8606         calculate D2E/DX2 analytically  !
 ! A5    A(5,1,7)              109.9539         calculate D2E/DX2 analytically  !
 ! A6    A(6,1,7)              107.4149         calculate D2E/DX2 analytically  !
 ! A7    A(1,2,3)              112.3371         calculate D2E/DX2 analytically  !
 ! A8    A(1,2,4)              125.3171         calculate D2E/DX2 analytically  !
 ! A9    A(3,2,4)              122.3457         calculate D2E/DX2 analytically  !
 ! A10   A(2,3,8)              107.0365         calculate D2E/DX2 analytically  !
 ! D1    D(5,1,2,3)              0.8908         calculate D2E/DX2 analytically  !
 ! D2    D(5,1,2,4)           -179.1755         calculate D2E/DX2 analytically  !
 ! D3    D(6,1,2,3)           -120.7434         calculate D2E/DX2 analytically  !
 ! D4    D(6,1,2,4)             59.1904         calculate D2E/DX2 analytically  !
 ! D5    D(7,1,2,3)            122.669          calculate D2E/DX2 analytically  !
 ! D6    D(7,1,2,4)            -57.3973         calculate D2E/DX2 analytically  !
 ! D7    D(1,2,3,8)            179.9087         calculate D2E/DX2 analytically  !
 ! D8    D(4,2,3,8)             -0.0273         calculate D2E/DX2 analytically  !
 --------------------------------------------------------------------------------
 Trust Radius=3.00D-01 FncErr=1.00D-07 GrdErr=1.00D-07
 Number of steps in this run=   2 maximum allowed number of steps=   2.
 GradGradGradGradGradGradGradGradGradGradGradGradGradGradGradGradGradGrad

                          Input orientation:                          
 ---------------------------------------------------------------------
 Center     Atomic     Atomic              Coordinates (Angstroms)
 Number     Number      Type              X           Y           Z
 ---------------------------------------------------------------------
    1          6             0       -0.150692   -0.174801   -1.381598
    2          6             0       -0.097606    0.003704    0.112614
    3          8             0        1.170007    0.172830    0.567191
    4          8             0       -1.051833    0.002841    0.848706
    5          1             0        0.839566   -0.152255   -1.833078
    6          1             0       -0.770224    0.618131   -1.806222
    7          1             0       -0.639714   -1.125704   -1.603172
    8          1             0        1.114760    0.281044    1.529198
 ---------------------------------------------------------------------
                    Distance matrix (angstroms):
                    1          2          3          4          5
     1  C    0.000000
     2  C    1.505773   0.000000
     3  O    2.379678   1.357235   0.000000
     4  O    2.412025   1.205147   2.246045   0.000000
     5  H    1.088556   2.165256   2.444619   3.285333   0.000000
     6  H    1.092184   2.124116   3.097722   2.739805   1.784835
     7  H    1.091995   2.124468   3.109945   2.730414   1.785701
     8  H    3.206539   1.885062   0.969650   2.287922   3.401232
                    6          7          8
     6  H    0.000000
     7  H    1.760460   0.000000
     8  H    3.846013   3.856016   0.000000
 Stoichiometry    C2H4O2
 Framework group  C1[X(C2H4O2)]
 Deg. of freedom    18
 Full point group                 C1      NOp   1
 Largest Abelian subgroup         C1      NOp   1
 Largest concise Abelian subgroup C1      NOp   1
                         Standard orientation:                         
 ---------------------------------------------------------------------
 Center     Atomic     Atomic              Coordinates (Angstroms)
 Number     Number      Type              X           Y           Z
 ---------------------------------------------------------------------
    1          6             0        1.390053   -0.172710   -0.000153
    2          6             0       -0.086752    0.121230   -0.000490
    3          8             0       -0.837716   -1.009319   -0.000073
    4          8             0       -0.578086    1.221670    0.000073
    5          1             0        1.595801   -1.241537   -0.015307
    6          1             0        1.835687    0.278366    0.889121
    7          1             0        1.842282    0.306230   -0.871106
    8          1             0       -1.767158   -0.732990    0.001150
 ---------------------------------------------------------------------
 Rotational constants (GHZ):     11.3598386      9.4026128      5.3134279
 Standard basis: 6-311+G(d,p) (5D, 7F)
 There are   112 symmetry adapted basis functions of A   symmetry.
 Integral buffers will be    131072 words long.
 Raffenetti 2 integral format.
 Two-electron integral symmetry is turned on.
   112 basis functions,   176 primitive gaussians,   116 cartesian basis functions
    16 alpha electrons       16 beta electrons
       nuclear repulsion energy       120.9719772966 Hartrees.
 NAtoms=    8 NActive=    8 NUniq=    8 SFac= 1.00D+00 NAtFMM=   60 Big=F
 One-electron integrals computed using PRISM.
 NBasis=   112 RedAO= T  NBF=   112
 NBsUse=   112 1.00D-06 NBFU=   112
 Harris functional with IExCor=  402 diagonalized for initial guess.
 ExpMin= 4.38D-02 ExpMax= 8.59D+03 ExpMxC= 1.30D+03 IAcc=2 IRadAn=         4 AccDes= 0.00D+00
 HarFok:  IExCor= 402 AccDes= 0.00D+00 IRadAn=         4 IDoV=1
 ScaDFX=  1.000000  1.000000  1.000000  1.000000
 Initial guess orbital symmetries:
       Occupied  (A) (A) (A) (A) (A) (A) (A) (A) (A) (A) (A) (A)
                 (A) (A) (A) (A)
       Virtual   (A) (A) (A) (A) (A) (A) (A) (A) (A) (A) (A) (A)
                 (A) (A) (A) (A) (A) (A) (A) (A) (A) (A) (A) (A)
                 (A) (A) (A) (A) (A) (A) (A) (A) (A) (A) (A) (A)
                 (A) (A) (A) (A) (A) (A) (A) (A) (A) (A) (A) (A)
                 (A) (A) (A) (A) (A) (A) (A) (A) (A) (A) (A) (A)
                 (A) (A) (A) (A) (A) (A) (A) (A) (A) (A) (A) (A)
                 (A) (A) (A) (A) (A) (A) (A) (A) (A) (A) (A) (A)
                 (A) (A) (A) (A) (A) (A) (A) (A) (A) (A) (A) (A)
 The electronic state of the initial guess is 1-A.
 Requested convergence on RMS density matrix=1.00D-08 within 128 cycles.
 Requested convergence on MAX density matrix=1.00D-06.
 Requested convergence on             energy=1.00D-06.
 No special actions if energy rises.
 SCF Done:  E(RB+HF-LYP) =  -229.164175745     A.U. after   11 cycles
             Convg  =    0.5189D-08             -V/T =  2.0035
             S**2   =   0.0000
 Range of M.O.s used for correlation:     1   112
 NBasis=   112 NAE=    16 NBE=    16 NFC=     0 NFV=     0
 NROrb=    112 NOA=    16 NOB=    16 NVA=    96 NVB=    96

 **** Warning!!: The largest alpha MO coefficient is  0.24027649D+02

 Symmetrizing basis deriv contribution to polar:
 IMax=3 JMax=2 DiffMx= 0.00D+00
 G2DrvN: will do    9 centers at a time, making    1 passes doing MaxLOS=2.
 FoFDir/FoFCou used for L=0 through L=2.
 DoAtom=TTTTTTTT
          Differentiating once with respect to electric field.
                with respect to dipole field.
          Differentiating once with respect to nuclear coordinates.
 Integrals replicated using symmetry in FoFDir.
 MinBra= 0 MaxBra= 2 Meth= 1.
 IRaf=       0 NMat=  27 IRICut=      27 DoRegI=T DoRafI=T ISym2E= 2 JSym2E=2.
          There are  27 degrees of freedom in the 1st order CPHF.
    24 vectors were produced by pass  0.
 AX will form  24 AO Fock derivatives at one time.
    24 vectors were produced by pass  1.
    24 vectors were produced by pass  2.
    24 vectors were produced by pass  3.
    24 vectors were produced by pass  4.
    17 vectors were produced by pass  5.
     4 vectors were produced by pass  6.
     3 vectors were produced by pass  7.
 Inv2:  IOpt= 1 Iter= 1 AM= 2.10D-15 Conv= 1.00D-12.
 Inverted reduced A of dimension  144 with in-core refinement.
 Isotropic polarizability for W=    0.000000       31.97 Bohr**3.
 End of Minotr Frequency-dependent properties file   721 does not exist.
 Full mass-weighted force constant matrix:
 Low frequencies ---  -81.5980  -10.5703   -6.1151    0.0004    0.0008    0.0009
 Low frequencies ---    9.5865  429.8627  546.5804
 ******    1 imaginary frequencies (negative Signs) ****** 
 Diagonal vibrational polarizability:
        7.0058143       7.8355257      15.4054679
 Harmonic frequencies (cm**-1), IR intensities (KM/Mole), Raman scattering
 activities (A**4/AMU), depolarization ratios for plane and unpolarized
 incident light, reduced masses (AMU), force constants (mDyne/A),
 and normal coordinates:
                     1                      2                      3
                     A                      A                      A
 Frequencies --   -81.4935               429.8624               546.5798
 Red. masses --     1.0764                 2.9864                 1.5363
 Frc consts  --     0.0042                 0.3251                 0.2704
 IR Inten    --     1.5211                 4.1731                31.1201
 Atom AN      X      Y      Z        X      Y      Z        X      Y      Z
   1   6     0.00   0.00   0.01    -0.06  -0.19   0.00     0.00   0.00  -0.01
   2   6     0.00   0.00   0.02     0.00   0.16   0.00     0.00   0.00   0.21
   3   8     0.00   0.00  -0.05     0.22   0.02   0.00     0.00   0.00   0.00
   4   8     0.00   0.00   0.04    -0.17   0.09   0.00     0.00   0.00  -0.07
   5   1     0.00  -0.01   0.53    -0.55  -0.28   0.00     0.00   0.00  -0.26
   6   1     0.12   0.49  -0.31     0.14  -0.41   0.01     0.35  -0.10  -0.14
   7   1    -0.12  -0.48  -0.32     0.16  -0.42  -0.01    -0.34   0.10  -0.14
   8   1     0.00   0.00  -0.09     0.14  -0.24   0.00     0.00   0.00  -0.77
                     4                      5                      6
                     A                      A                      A
 Frequencies --   582.9644               693.0774               854.0930
 Red. masses --     4.1825                 1.5777                 3.9262
 Frc consts  --     0.8375                 0.4465                 1.6875
 IR Inten    --    39.6535               109.9092                 5.9215
 Atom AN      X      Y      Z        X      Y      Z        X      Y      Z
   1   6     0.27  -0.05   0.00     0.00   0.00  -0.03     0.31  -0.01   0.00
   2   6     0.13  -0.01   0.00     0.00   0.00  -0.16    -0.10   0.11   0.00
   3   8    -0.10   0.20   0.00     0.00   0.00   0.11    -0.16  -0.21   0.00
   4   8    -0.25  -0.18   0.00     0.00   0.00   0.07    -0.04   0.18   0.00
   5   1     0.15  -0.08   0.00     0.00   0.00   0.10     0.16  -0.04   0.00
   6   1     0.31  -0.12   0.01    -0.25   0.04   0.08     0.43  -0.14   0.01
   7   1     0.33  -0.12  -0.01     0.24  -0.04   0.08     0.43  -0.14  -0.02
   8   1     0.05   0.71   0.02     0.00   0.00  -0.90    -0.25  -0.52   0.00
                     7                      8                      9
                     A                      A                      A
 Frequencies --  1012.3859              1068.1336              1198.1163
 Red. masses --     1.5847                 1.7498                 2.1638
 Frc consts  --     0.9569                 1.1762                 1.8301
 IR Inten    --    54.8193                 6.8722               266.8326
 Atom AN      X      Y      Z        X      Y      Z        X      Y      Z
   1   6    -0.04   0.17   0.00     0.00   0.00   0.17     0.06   0.09   0.00
   2   6     0.09   0.02   0.00     0.00   0.00  -0.19    -0.17  -0.11   0.00
   3   8    -0.05  -0.07   0.00     0.00   0.00   0.03     0.03   0.17   0.00
   4   8     0.04  -0.05   0.00     0.00   0.00   0.03     0.05  -0.08   0.00
   5   1    -0.80   0.02   0.00    -0.01   0.01  -0.38    -0.20   0.02   0.00
   6   1     0.22  -0.26   0.08     0.61  -0.02  -0.15     0.20  -0.22   0.08
   7   1     0.24  -0.26  -0.08    -0.60   0.01  -0.16     0.21  -0.22  -0.08
   8   1     0.04   0.23   0.00     0.00   0.00   0.05    -0.23  -0.79   0.00
                    10                     11                     12
                     A                      A                      A
 Frequencies --  1334.2262              1402.3278              1479.6226
 Red. masses --     1.8374                 1.3167                 1.0471
 Frc consts  --     1.9271                 1.5255                 1.3507
 IR Inten    --    34.8428                46.5206                 8.9513
 Atom AN      X      Y      Z        X      Y      Z        X      Y      Z
   1   6     0.00  -0.03   0.00     0.15   0.00   0.00    -0.01   0.01  -0.05
   2   6     0.21   0.12   0.00    -0.06  -0.04   0.00     0.01   0.01  -0.03
   3   8    -0.08   0.02   0.00     0.02   0.00   0.00     0.00   0.00   0.00
   4   8    -0.01  -0.07   0.00     0.00   0.03   0.00     0.00   0.00   0.00
   5   1    -0.22  -0.06   0.00    -0.42  -0.11  -0.01     0.10   0.02   0.70
   6   1    -0.26   0.22   0.00    -0.53   0.01   0.32     0.22  -0.50   0.11
   7   1    -0.26   0.22   0.00    -0.52   0.02  -0.32    -0.29   0.31  -0.02
   8   1    -0.28  -0.75   0.00     0.06   0.15   0.00    -0.01  -0.02   0.00
                    13                     14                     15
                     A                      A                      A
 Frequencies --  1480.8084              1814.6151              3053.6988
 Red. masses --     1.1024                 9.6401                 1.0355
 Frc consts  --     1.4242                18.7026                 5.6890
 IR Inten    --     6.4216               373.3291                 1.2286
 Atom AN      X      Y      Z        X      Y      Z        X      Y      Z
   1   6    -0.04   0.05   0.01     0.05  -0.05   0.00    -0.05   0.00   0.00
   2   6     0.06   0.03   0.01    -0.36   0.61   0.00     0.00   0.00   0.00
   3   8    -0.01  -0.01   0.00     0.03  -0.05   0.00     0.00   0.00   0.00
   4   8    -0.01   0.00   0.00     0.19  -0.40   0.00     0.00   0.00   0.00
   5   1     0.50   0.14  -0.15     0.20  -0.01   0.00     0.08  -0.47  -0.01
   6   1    -0.21  -0.37   0.30    -0.08   0.01   0.05     0.25   0.26   0.52
   7   1    -0.10  -0.55  -0.34    -0.08   0.02  -0.05     0.25   0.27  -0.49
   8   1    -0.03  -0.07   0.00     0.16   0.45   0.00     0.00   0.00   0.00
                    16                     17                     18
                     A                      A                      A
 Frequencies --  3115.9284              3150.1312              3751.2053
 Red. masses --     1.0998                 1.1044                 1.0643
 Frc consts  --     6.2912                 6.4570                 8.8235
 IR Inten    --     3.1894                 7.4363                60.8294
 Atom AN      X      Y      Z        X      Y      Z        X      Y      Z
   1   6     0.00   0.00   0.09    -0.01  -0.09   0.00     0.00   0.00   0.00
   2   6     0.00   0.00   0.00     0.00   0.00   0.00     0.00   0.00   0.00
   3   8     0.00   0.00   0.00     0.00   0.00   0.00     0.06  -0.02   0.00
   4   8     0.00   0.00   0.00     0.00   0.00   0.00     0.00   0.00   0.00
   5   1     0.00  -0.02   0.02    -0.16   0.87   0.01     0.00   0.00   0.00
   6   1    -0.29  -0.30  -0.56     0.13   0.12   0.26     0.00   0.00   0.00
   7   1     0.30   0.32  -0.56     0.14   0.14  -0.28     0.00   0.00   0.00
   8   1     0.00   0.00   0.00     0.00   0.00   0.00    -0.96   0.26   0.00

 -------------------
 - Thermochemistry -
 -------------------
 Temperature   298.150 Kelvin.  Pressure   1.00000 Atm.
 Atom  1 has atomic number  6 and mass  12.00000
 Atom  2 has atomic number  6 and mass  12.00000
 Atom  3 has atomic number  8 and mass  15.99491
 Atom  4 has atomic number  8 and mass  15.99491
 Atom  5 has atomic number  1 and mass   1.00783
 Atom  6 has atomic number  1 and mass   1.00783
 Atom  7 has atomic number  1 and mass   1.00783
 Atom  8 has atomic number  1 and mass   1.00783
 Molecular mass:    60.02113 amu.
 Principal axes and moments of inertia in atomic units:
                           1         2         3
     EIGENVALUES --   158.87032 191.94039 339.65666
           X            0.99945   0.03319   0.00002
           Y           -0.03319   0.99945  -0.00003
           Z           -0.00002   0.00003   1.00000
 This molecule is an asymmetric top.
 Rotational symmetry number  1.
 Rotational temperatures (Kelvin)      0.54519     0.45125     0.25500
 Rotational constants (GHZ):          11.35984     9.40261     5.31343
    1 imaginary frequencies ignored.
 Zero-point vibrational energy     161303.1 (Joules/Mol)
                                   38.55237 (Kcal/Mol)
 Warning -- explicit consideration of   3 degrees of freedom as
           vibrations may cause significant error
 Vibrational temperatures:    618.48   786.41   838.75   997.18  1228.85
          (Kelvin)           1456.60  1536.80  1723.82  1919.65  2017.63
                             2128.84  2130.55  2610.82  4393.59  4483.12
                             4532.33  5397.14
 
 Zero-point correction=                           0.061437 (Hartree/Particle)
 Thermal correction to Energy=                    0.065202
 Thermal correction to Enthalpy=                  0.066146
 Thermal correction to Gibbs Free Energy=         0.035408
 Sum of electronic and zero-point Energies=           -229.102739
 Sum of electronic and thermal Energies=              -229.098974
 Sum of electronic and thermal Enthalpies=            -229.098030
 Sum of electronic and thermal Free Energies=         -229.128768
 
                     E (Thermal)             CV                S
                      KCal/Mol        Cal/Mol-Kelvin    Cal/Mol-Kelvin
 Total                   40.915             12.291             64.693
 Electronic               0.000              0.000              0.000
 Translational            0.889              2.981             38.196
 Rotational               0.889              2.981             23.853
 Vibrational             39.137              6.329              2.644
 Vibration  1             0.791              1.405              0.859
 Vibration  2             0.902              1.147              0.551
 Vibration  3             0.940              1.068              0.480
                       Q            Log10(Q)             Ln(Q)
 Total Bot       0.517067D-16        -16.286453        -37.500945
 Total V=0       0.938856D+12         11.972599         27.567928
 Vib (Bot)       0.776540D-28        -28.109836        -64.725289
 Vib (Bot)  1    0.405380D+00         -0.392138         -0.902931
 Vib (Bot)  2    0.288059D+00         -0.540518         -1.244590
 Vib (Bot)  3    0.260615D+00         -0.584000         -1.344710
 Vib (V=0)       0.140999D+01          0.149217          0.343584
 Vib (V=0)  1    0.114369D+01          0.058307          0.134257
 Vib (V=0)  2    0.107704D+01          0.032233          0.074219
 Vib (V=0)  3    0.106384D+01          0.026878          0.061889
 Electronic      0.100000D+01          0.000000          0.000000
 Translational   0.182773D+08          7.261911         16.721169
 Rotational      0.364310D+05          4.561471         10.503175
 ***** Axes restored to original set *****
 -------------------------------------------------------------------
 Center     Atomic                   Forces (Hartrees/Bohr)
 Number     Number              X              Y              Z
 -------------------------------------------------------------------
    1          6           0.000000164   -0.000070304   -0.000382641
    2          6           0.000239257    0.000050314    0.000022200
    3          8          -0.000088151    0.000000218    0.000036082
    4          8          -0.000094007   -0.000021970    0.000060488
    5          1          -0.000190417    0.000003667    0.000186856
    6          1           0.000072357   -0.000091721    0.000062085
    7          1           0.000037541    0.000128738    0.000035643
    8          1           0.000023255    0.000001058   -0.000020713
 -------------------------------------------------------------------
 Cartesian Forces:  Max     0.000382641 RMS     0.000119476

 GradGradGradGradGradGradGradGradGradGradGradGradGradGradGradGradGradGrad
 Berny optimization.
 Internal  Forces:  Max     0.000250962 RMS     0.000078565
 Search for a local minimum.
 Step number   1 out of a maximum of   2
 All quantities printed in internal units (Hartrees-Bohrs-Radians)
 Second derivative matrix not updated -- analytic derivatives used.
     Eigenvalues ---   -0.00055   0.02126   0.04584   0.05463   0.05633
     Eigenvalues ---    0.12387   0.13294   0.14116   0.15455   0.20254
     Eigenvalues ---    0.25311   0.33829   0.33957   0.34467   0.34966
     Eigenvalues ---    0.38879   0.51140   0.873331000.000001000.00000
     Eigenvalues --- 1000.000001000.000001000.000001000.000001000.00000
 Eigenvalue   1 out of range, new value =    0.000549 Eigenvector:
                           1
           R1          -0.00014
           R2           0.00011
           R3           0.00486
           R4          -0.00491
           R5           0.00010
           R6          -0.00002
           R7          -0.00003
           A1          -0.00049
           A2          -0.00961
           A3           0.00996
           A4          -0.02254
           A5           0.02187
           A6           0.00084
           A7          -0.00047
           A8           0.00044
           A9           0.00000
           A10          0.00003
           D1           0.39710
           D2           0.37077
           D3           0.43239
           D4           0.40606
           D5           0.43121
           D6           0.40488
           D7          -0.04078
           D8          -0.01535
 Angle between quadratic step and forces=  84.69 degrees.
 Linear search not attempted -- first point.
 Iteration  1 RMS(Cart)=  0.00785524 RMS(Int)=  0.00003003
 Iteration  2 RMS(Cart)=  0.00003385 RMS(Int)=  0.00000026
 Iteration  3 RMS(Cart)=  0.00000000 RMS(Int)=  0.00000026
 Variable       Old X    -DE/DX   Delta X   Delta X   Delta X     New X
                                 (Linear)    (Quad)   (Total)
    R1        2.84550   0.00010   0.00000   0.00048   0.00048   2.84598
    R2        2.05707  -0.00025   0.00000  -0.00071  -0.00071   2.05636
    R3        2.06393  -0.00013   0.00000  -0.00022  -0.00022   2.06371
    R4        2.06357  -0.00014   0.00000  -0.00063  -0.00063   2.06295
    R5        2.56480  -0.00005   0.00000  -0.00025  -0.00025   2.56455
    R6        2.27740   0.00011   0.00000   0.00016   0.00016   2.27756
    R7        1.83237  -0.00002   0.00000  -0.00005  -0.00005   1.83232
    A1        1.95740  -0.00013   0.00000  -0.00101  -0.00101   1.95639
    A2        1.89624   0.00001   0.00000  -0.00046  -0.00046   1.89578
    A3        1.89691   0.00001   0.00000   0.00038   0.00038   1.89730
    A4        1.91743   0.00005   0.00000  -0.00048  -0.00048   1.91695
    A5        1.91906   0.00006   0.00000   0.00137   0.00137   1.92043
    A6        1.87474   0.00000   0.00000   0.00024   0.00024   1.87498
    A7        1.96065   0.00004   0.00000   0.00010   0.00010   1.96075
    A8        2.18720  -0.00003   0.00000  -0.00012  -0.00012   2.18708
    A9        2.13534  -0.00001   0.00000   0.00002   0.00002   2.13535
   A10        1.86814   0.00004   0.00000   0.00027   0.00027   1.86841
    D1        0.01555   0.00000   0.00000   0.01546   0.01546   0.03101
    D2       -3.12720   0.00001   0.00000   0.01455   0.01456  -3.11265
    D3       -2.10737   0.00002   0.00000   0.01704   0.01704  -2.09033
    D4        1.03307   0.00002   0.00000   0.01613   0.01613   1.04919
    D5        2.14098   0.00000   0.00000   0.01679   0.01679   2.15777
    D6       -1.00177   0.00001   0.00000   0.01589   0.01589  -0.98588
    D7        3.14000   0.00000   0.00000  -0.00158  -0.00158   3.13842
    D8       -0.00048   0.00000   0.00000  -0.00070  -0.00070  -0.00118
         Item               Value     Threshold  Converged?
 Maximum Force            0.000251     0.000450     YES
 RMS     Force            0.000079     0.000300     YES
 Maximum Displacement     0.020441     0.001800     NO 
 RMS     Displacement     0.007855     0.001200     NO 
 Predicted change in Energy=-1.559565D-06
 GradGradGradGradGradGradGradGradGradGradGradGradGradGradGradGradGradGrad


 Test job not archived.
 1\1\GINC-CLUSTER-BIO\Freq\RB3LYP\6-311+G(d,p)\C2H4O2\CHAQUIN\07-Apr-20
 13\0\\# B3LYP 6-311+G** GEOM=CHECKPOINT FREQ POP=NONE TEST\\*** Vibrat
 ions CH3-COCl **** 0 1\\0,1\C,-0.1506916526,-0.1748009224,-1.381597590
 6\C,-0.0976062249,0.0037038029,0.1126143167\O,1.1700073864,0.172829952
 8,0.5671908015\O,-1.0518325219,0.0028409047,0.848706022\H,0.8395660349
 ,-0.1522548609,-1.8330782873\H,-0.7702236626,0.6181305053,-1.806222335
 3\H,-0.6397135954,-1.1257036263,-1.6031724575\H,1.1147595725,0.2810438
 392,1.529198136\\Version=AM64L-G03RevC.02\State=1-A\HF=-229.1641757\RM
 SD=5.189e-09\RMSF=1.195e-04\Dipole=0.5085861,-0.0009981,-0.4195735\Dip
 oleDeriv=0.0382709,-0.0138508,-0.1089985,-0.0059725,0.0429857,-0.04561
 03,-0.0402668,-0.0426327,-0.2991789,1.9148323,0.1498974,-0.0050403,0.1
 485053,0.2974218,0.1288558,-0.0184489,0.1277066,1.3886548,-1.2434294,-
 0.1073207,-0.2525242,-0.132597,-0.4054645,-0.0404503,-0.4638072,-0.059
 8092,-0.5396283,-1.0640103,-0.040403,0.1924753,-0.0122761,-0.3859385,-
 0.0419978,0.4301407,-0.0200133,-0.8902797,-0.0443978,-0.0009525,0.0827
 214,-0.0069399,0.0953308,-0.0035541,0.0327338,-0.0064067,0.0199907,0.0
 470892,0.0710548,-0.0080876,0.0693519,0.0158776,0.04529,-0.0063696,0.0
 105118,0.0436151,0.0666319,-0.0619568,0.0139435,-0.0603857,-0.0146951,
 -0.0346592,0.0096339,0.0012034,0.0545214,0.2850132,0.0035315,0.0855104
 ,0.0003141,0.3544821,-0.007874,0.0563841,-0.0105599,0.2223049\Polar=35
 .5422725,1.044233,24.1380011,-0.1773894,1.4057186,36.2178721\PG=C01 [X
 (C2H4O2)]\NImag=1\\0.59921285,0.00377752,0.53330441,-0.02010342,-0.007
 45531,0.47885271,-0.07952751,-0.00073286,-0.01368175,0.77350376,0.0009
 6461,-0.09055556,-0.01338371,0.02518226,0.23561520,0.00061655,-0.01231
 023,-0.19292420,-0.21028719,0.04323511,0.76218906,-0.00931599,-0.00310
 491,-0.00989919,-0.21609771,-0.01821993,-0.03599172,0.38508698,-0.0064
 0085,0.01135243,-0.00494419,-0.02123985,-0.06638587,-0.01369571,0.0336
 8158,0.05126599,-0.03818575,-0.00762312,-0.02213899,-0.06144976,-0.016
 00608,-0.15145783,0.01850993,0.07012733,0.62167380,0.00042441,0.000213
 35,0.01685358,-0.47659062,-0.00028412,0.30788804,-0.10917147,-0.009964
 13,0.02312059,0.58154417,0.00287336,0.01823747,-0.00419343,-0.00183566
 ,-0.07947740,-0.00566200,-0.01111283,0.02903407,0.00302384,0.00834618,
 0.03340622,0.04010363,-0.00212680,-0.03083191,0.29448198,-0.00684757,-
 0.36653531,0.01332217,0.00211344,0.03731513,-0.35737173,0.00656066,0.3
 6637803,-0.27700951,-0.00526548,0.10438286,0.00107175,0.00007790,-0.00
 190330,0.00086119,-0.00014074,-0.00191430,0.00210891,-0.00013233,-0.00
 124322,0.29691007,-0.00618997,-0.04801057,0.00239216,0.00441926,-0.003
 49461,-0.00039066,-0.00013624,-0.00006652,-0.00007642,-0.00005096,0.00
 250895,-0.00156036,0.00616704,0.04610277,0.09687662,0.00180019,-0.0941
 5376,0.03464464,0.00227769,-0.00664826,-0.00165917,-0.00000685,0.00082
 830,0.00001788,-0.00143081,-0.01019161,-0.11062164,-0.00195629,0.10081
 211,-0.13075847,0.11333363,-0.05632115,-0.00303754,-0.00045924,-0.0023
 2372,0.00054275,-0.00013939,-0.00145256,-0.00040494,0.00033545,0.00165
 533,-0.01372370,0.02082172,-0.01227028,0.13875339,0.11250107,-0.183771
 26,0.07678007,-0.00322234,0.00422384,-0.00304212,-0.00089715,-0.000908
 40,-0.00109711,-0.00048736,0.00044065,0.00041619,-0.00177859,0.0015154
 1,-0.00202443,-0.12262740,0.19952318,-0.05614650,0.07717703,-0.0854625
 6,-0.01955914,0.02872673,-0.01308940,-0.00035271,-0.00200827,-0.004081
 71,0.00099171,-0.00409082,0.00168705,0.00667998,-0.01142399,0.00591505
 ,0.06447717,-0.08216068,0.09286505,-0.09784140,-0.10702061,-0.02068545
 ,-0.00316951,-0.00074368,-0.00252067,0.00043169,-0.00009415,-0.0015546
 7,-0.00040919,-0.00010170,0.00173733,-0.01041142,-0.02507323,-0.007181
 37,0.00873554,0.01666399,0.00463001,0.10284269,-0.10615031,-0.24744474
 ,-0.04854695,-0.00151539,-0.00272093,0.00037153,0.00092483,-0.00023651
 ,-0.00004445,0.00048638,0.00140708,-0.00007069,0.00104573,0.00151974,0
 .00121737,-0.01087968,-0.02046408,-0.00500169,0.11608866,0.26810877,-0
 .02049868,-0.04858961,-0.05548846,-0.01500589,-0.03371662,-0.00603953,
 -0.00083342,0.00092120,-0.00476254,0.00015599,0.00419185,0.00089945,0.
 00449103,0.01290546,0.00270149,0.00660922,0.01135507,0.00265599,0.0260
 6840,0.05195912,0.06084515,-0.00518439,-0.00120064,-0.00054548,0.00384
 737,-0.00651781,-0.05547799,-0.05233744,0.00429754,0.06292652,0.002498
 73,0.00162755,0.00731451,0.00019270,0.00004238,0.00019333,-0.00010704,
 -0.00015223,-0.00072052,-0.00017841,-0.00000022,-0.00098664,0.05126848
 ,-0.00137543,0.00688783,-0.00064864,-0.00105542,0.00279534,-0.00850592
 ,-0.00113536,-0.02405519,-0.04830399,0.00174066,-0.00555704,0.00151513
 ,0.00002646,-0.00007517,0.00012313,-0.00038508,-0.00055933,-0.00121830
 ,0.00028073,-0.00016933,0.00097354,0.00190343,0.02073289,-0.00266244,-
 0.00087215,0.00214718,-0.00914289,-0.00428556,-0.02549454,0.01690411,-
 0.05250696,-0.47737616,0.00834393,0.00160071,0.00127917,0.00012860,0.0
 0011011,0.00073669,-0.00037401,-0.00022698,-0.00048946,-0.00049358,0.0
 0011577,-0.00081156,-0.01270372,0.05606506,0.50000869\\-0.00000016,0.0
 0007030,0.00038264,-0.00023926,-0.00005031,-0.00002220,0.00008815,-0.0
 0000022,-0.00003608,0.00009401,0.00002197,-0.00006049,0.00019042,-0.00
 000367,-0.00018686,-0.00007236,0.00009172,-0.00006208,-0.00003754,-0.0
 0012874,-0.00003564,-0.00002326,-0.00000106,0.00002071\\\@


 OF ALL THE WONDERS OF THE UNIVERSE, THE GREATEST IS MAN.

                                    -- ARISTOTLE
 Job cpu time:  0 days  0 hours  8 minutes 19.4 seconds.
 File lengths (MBytes):  RWF=     22 Int=      0 D2E=      0 Chk=     11 Scr=      1
 Normal termination of Gaussian 03 at Sun Apr  7 18:34:21 2013.
827.97user 11.40system 14:00.38elapsed 99%CPU (0avgtext+0avgdata 0maxresident)k
0inputs+0outputs (4major+6043175minor)pagefaults 0swaps
