[Molden Format]
[Atoms] Angs
 C     1  6    -1.842421     0.000000     0.355954
 H     2  1    -1.842421     0.000000     1.444261
 C     3  6    -0.444372     0.000000    -0.209056
 H     4  1    -2.371343    -0.880139    -0.015784
 H     5  1    -2.371343     0.880139    -0.015784
 O     6  8    -0.173610     0.000000    -1.384916
 O     7  8     0.490842     0.000000     0.767025
 C     8  6     1.861543     0.000000     0.326075
 H     9  1     2.458872     0.000000     1.235097
 H    10  1     2.069942    -0.888654    -0.271249
 H    11  1     2.069942     0.888654    -0.271249
[FREQ]
  -73.0365
  130.4105
  191.5713
  284.7233
  424.7486
  622.7821
  638.1747
  852.1000
  999.7920
 1057.5085
 1066.9683
 1172.1770
 1206.8630
 1256.3517
 1397.1913
 1465.7986
 1479.1046
 1482.9785
 1484.3831
 1498.0963
 1793.4150
 3051.0705
 3053.1627
 3114.5344
 3123.4310
 3150.8409
 3156.9197
[INT]
    1.1746
    0.6269
    7.6155
   13.2666
    6.3635
    6.4604
    4.9473
   23.9261
    4.9638
   55.6498
    8.4150
    0.8598
    1.1807
  375.2188
   40.5116
    4.8050
    5.9465
   18.0395
   12.6974
   10.2848
  293.7634
   26.8656
    4.0117
    4.4176
   19.8562
    7.8758
   14.6397
[FR-COORD]
 C    -3.481671     0.000000     0.672656
 H    -3.481671     0.000000     2.729258
 C    -0.839741     0.000000    -0.395059
 H    -4.481188    -1.663222    -0.029827
 H    -4.481188     1.663222    -0.029827
 O    -0.328075     0.000000    -2.617112
 O     0.927557     0.000000     1.449467
 C     3.517806     0.000000     0.616192
 H     4.646594     0.000000     2.333995
 H     3.911623    -1.679313    -0.512586
 H     3.911623     1.679313    -0.512586
[FR-NORM-COORD]
vibration     1
    0.000000     0.000000    -0.020000
    0.000000     0.000000     0.510000
    0.000000     0.000000     0.020000
    0.260000    -0.430000    -0.340000
   -0.260000     0.430000    -0.340000
    0.000000     0.000000     0.050000
    0.000000     0.000000    -0.010000
    0.000000     0.000000    -0.030000
    0.000000     0.000000    -0.050000
   -0.020000     0.010000    -0.030000
    0.020000    -0.010000    -0.030000
vibration     2
    0.000000     0.000000    -0.030000
    0.000000     0.000000    -0.080000
    0.000000     0.000000     0.010000
    0.010000     0.040000    -0.020000
   -0.010000    -0.040000    -0.020000
    0.000000     0.000000     0.060000
    0.000000     0.000000     0.000000
    0.000000     0.000000    -0.040000
    0.000000     0.000000     0.520000
    0.160000    -0.470000    -0.340000
   -0.160000     0.470000    -0.340000
vibration     3
    0.000000     0.000000     0.160000
    0.000000     0.000000     0.350000
    0.000000     0.000000    -0.090000
   -0.120000    -0.170000     0.170000
    0.120000     0.170000     0.170000
    0.000000     0.000000    -0.020000
    0.000000     0.000000    -0.280000
    0.000000     0.000000     0.190000
    0.000000     0.000000     0.480000
    0.350000    -0.030000     0.220000
   -0.350000     0.030000     0.220000
vibration     4
   -0.090000     0.110000     0.000000
   -0.330000     0.090000     0.000000
    0.030000    -0.130000     0.000000
   -0.020000     0.240000     0.000000
   -0.020000     0.240000     0.000000
    0.170000    -0.150000     0.000000
    0.020000    -0.130000     0.000000
   -0.120000     0.240000     0.000000
    0.130000     0.440000     0.000000
   -0.310000     0.300000     0.010000
   -0.310000     0.300000    -0.010000
vibration     5
    0.130000    -0.160000     0.000000
    0.580000    -0.110000     0.000000
   -0.020000     0.110000     0.000000
    0.000000    -0.400000    -0.010000
    0.000000    -0.400000     0.010000
    0.230000     0.080000     0.000000
   -0.150000    -0.010000     0.000000
   -0.210000     0.020000     0.000000
   -0.150000     0.070000     0.000000
   -0.250000     0.040000     0.010000
   -0.250000     0.040000    -0.010000
vibration     6
    0.000000     0.000000     0.030000
    0.000000     0.000000    -0.320000
    0.000000     0.000000     0.340000
    0.500000     0.270000    -0.200000
   -0.500000    -0.270000    -0.200000
    0.000000     0.000000    -0.130000
    0.000000     0.000000    -0.110000
    0.000000     0.000000     0.000000
    0.000000     0.000000     0.060000
    0.100000     0.030000     0.040000
   -0.100000    -0.030000     0.040000
vibration     7
    0.340000     0.150000     0.000000
    0.190000     0.140000     0.000000
    0.130000    -0.010000     0.000000
    0.390000     0.260000     0.010000
    0.390000     0.260000    -0.010000
   -0.220000     0.040000     0.000000
   -0.020000    -0.170000     0.000000
   -0.180000    -0.040000     0.000000
    0.040000     0.140000     0.000000
   -0.320000     0.010000     0.010000
   -0.320000     0.010000    -0.010000
vibration     8
   -0.150000     0.000000     0.000000
    0.260000     0.040000     0.000000
   -0.010000     0.140000     0.000000
   -0.270000    -0.280000    -0.030000
   -0.270000    -0.280000     0.030000
   -0.040000     0.190000     0.000000
    0.060000    -0.300000     0.000000
    0.140000     0.010000     0.000000
    0.520000     0.310000     0.000000
   -0.150000     0.100000     0.010000
   -0.150000     0.100000    -0.010000
vibration     9
   -0.080000    -0.180000     0.000000
   -0.780000    -0.250000     0.000000
    0.150000     0.040000     0.000000
    0.020000     0.220000     0.070000
    0.020000     0.220000    -0.070000
    0.010000     0.130000     0.000000
    0.130000     0.030000     0.000000
   -0.160000    -0.090000     0.000000
    0.030000     0.060000     0.000000
   -0.210000    -0.030000     0.030000
   -0.210000    -0.030000    -0.030000
vibration    10
   -0.090000     0.150000     0.000000
    0.630000     0.210000     0.000000
    0.010000    -0.010000     0.000000
   -0.230000    -0.360000    -0.090000
   -0.230000    -0.360000     0.090000
   -0.020000    -0.060000     0.000000
    0.240000     0.070000     0.000000
   -0.200000    -0.090000     0.000000
   -0.060000     0.000000     0.000000
   -0.100000    -0.060000     0.030000
   -0.100000    -0.060000    -0.030000
vibration    11
    0.000000     0.000000     0.170000
    0.000000     0.000000    -0.370000
    0.000000     0.000000    -0.190000
    0.580000     0.180000    -0.160000
   -0.580000    -0.180000    -0.160000
    0.000000     0.000000     0.040000
    0.000000     0.000000     0.030000
    0.000000     0.000000     0.000000
    0.000000     0.000000    -0.010000
    0.010000     0.000000     0.000000
   -0.010000     0.000000     0.000000
vibration    12
    0.000000     0.000000    -0.010000
    0.000000     0.000000     0.000000
    0.000000     0.000000     0.000000
   -0.020000    -0.010000     0.010000
    0.020000     0.010000     0.010000
    0.000000     0.000000     0.000000
    0.000000     0.000000     0.070000
    0.000000     0.000000    -0.140000
    0.000000     0.000000     0.310000
    0.560000     0.310000     0.170000
   -0.560000    -0.310000     0.170000
vibration    13
    0.020000     0.000000     0.000000
    0.030000     0.010000     0.000000
   -0.070000     0.000000     0.000000
    0.050000     0.060000     0.000000
    0.050000     0.060000     0.000000
    0.020000    -0.040000     0.000000
   -0.020000     0.100000     0.000000
    0.070000    -0.140000     0.000000
    0.650000     0.330000     0.000000
   -0.410000     0.150000     0.120000
   -0.410000     0.150000    -0.120000
vibration    14
   -0.100000     0.070000     0.000000
    0.000000     0.050000     0.000000
    0.430000    -0.110000     0.000000
   -0.240000    -0.450000    -0.100000
   -0.240000    -0.450000     0.100000
   -0.060000     0.000000     0.000000
   -0.190000     0.080000     0.000000
    0.090000     0.000000     0.000000
   -0.030000    -0.070000     0.000000
   -0.300000     0.070000     0.000000
   -0.300000     0.070000     0.000000
vibration    15
    0.140000     0.050000     0.000000
   -0.490000    -0.010000     0.000000
   -0.030000     0.010000     0.000000
   -0.490000    -0.220000     0.290000
   -0.490000    -0.220000    -0.290000
    0.000000    -0.020000     0.000000
    0.010000     0.000000     0.000000
   -0.010000    -0.010000     0.000000
    0.050000     0.040000     0.000000
    0.040000     0.010000     0.010000
    0.040000     0.010000    -0.010000
vibration    16
    0.010000    -0.030000     0.000000
    0.230000     0.000000     0.000000
   -0.020000    -0.010000     0.000000
   -0.170000     0.210000     0.200000
   -0.170000     0.210000    -0.200000
    0.000000     0.010000     0.000000
    0.040000     0.000000     0.000000
    0.080000     0.020000     0.000000
   -0.430000    -0.370000     0.000000
   -0.430000     0.040000    -0.070000
   -0.430000     0.040000     0.070000
vibration    17
    0.000000     0.000000    -0.050000
    0.000000     0.000000     0.710000
    0.000000     0.000000    -0.030000
    0.130000     0.460000     0.050000
   -0.130000    -0.460000     0.050000
    0.000000     0.000000     0.000000
    0.000000     0.000000     0.000000
    0.000000     0.000000     0.010000
    0.000000     0.000000    -0.100000
    0.060000    -0.030000    -0.010000
   -0.060000     0.030000    -0.010000
vibration    18
   -0.020000    -0.050000     0.000000
    0.450000     0.000000     0.000000
    0.070000     0.000000     0.000000
   -0.260000     0.350000     0.290000
   -0.260000     0.350000    -0.290000
   -0.010000    -0.020000     0.000000
   -0.030000     0.010000     0.000000
   -0.040000     0.000000     0.000000
    0.250000     0.220000     0.000000
    0.230000    -0.070000     0.000000
    0.230000    -0.070000     0.000000
vibration    19
    0.000000     0.000000    -0.010000
    0.000000     0.000000     0.100000
    0.000000     0.000000     0.000000
    0.020000     0.060000     0.010000
   -0.020000    -0.060000     0.010000
    0.000000     0.000000     0.000000
    0.000000     0.000000    -0.010000
    0.000000     0.000000    -0.060000
    0.000000     0.000000     0.720000
   -0.410000     0.240000     0.060000
    0.410000    -0.240000     0.060000
vibration    20
    0.000000     0.010000     0.000000
   -0.040000     0.000000     0.000000
   -0.010000     0.000000     0.000000
    0.020000    -0.030000    -0.020000
    0.020000    -0.030000     0.020000
    0.000000     0.000000     0.000000
    0.000000     0.020000     0.000000
    0.010000     0.050000     0.000000
    0.180000     0.170000     0.000000
   -0.160000    -0.520000    -0.410000
   -0.160000    -0.520000     0.410000
vibration    21
   -0.040000    -0.060000     0.000000
   -0.210000    -0.070000     0.000000
    0.160000     0.750000     0.000000
    0.080000     0.030000    -0.060000
    0.080000     0.030000     0.060000
   -0.070000    -0.480000     0.000000
    0.000000    -0.050000     0.000000
    0.030000     0.020000     0.000000
   -0.180000    -0.130000     0.000000
   -0.130000     0.050000    -0.030000
   -0.130000     0.050000     0.030000
vibration    22
    0.000000     0.000000     0.000000
   -0.010000     0.040000     0.000000
    0.000000     0.000000     0.000000
    0.020000    -0.010000     0.040000
    0.020000    -0.010000    -0.040000
    0.000000     0.000000     0.000000
    0.000000     0.000000     0.000000
    0.030000     0.030000     0.000000
   -0.270000     0.350000     0.000000
   -0.080000    -0.350000     0.520000
   -0.080000    -0.350000    -0.520000
vibration    23
   -0.050000    -0.010000     0.000000
   -0.050000     0.460000     0.000000
    0.000000     0.000000     0.000000
    0.310000    -0.180000     0.510000
    0.310000    -0.180000    -0.510000
    0.000000     0.000000     0.000000
    0.000000     0.000000     0.000000
    0.000000     0.000000     0.000000
    0.020000    -0.030000     0.000000
    0.010000     0.030000    -0.040000
    0.010000     0.030000     0.040000
vibration    24
    0.000000     0.000000     0.090000
    0.000000     0.000000     0.020000
    0.000000     0.000000     0.000000
   -0.370000     0.210000    -0.560000
    0.370000    -0.210000    -0.560000
    0.000000     0.000000     0.000000
    0.000000     0.000000     0.000000
    0.000000     0.000000     0.000000
    0.000000     0.000000     0.000000
    0.000000     0.000000     0.000000
    0.000000     0.000000     0.000000
vibration    25
    0.000000     0.000000     0.000000
    0.000000     0.000000     0.000000
    0.000000     0.000000     0.000000
    0.000000     0.000000     0.000000
    0.000000     0.000000     0.000000
    0.000000     0.000000     0.000000
    0.000000     0.000000     0.000000
    0.000000     0.000000     0.090000
    0.000000     0.000000     0.020000
    0.080000     0.400000    -0.570000
   -0.080000    -0.400000    -0.570000
vibration    26
    0.030000    -0.090000     0.000000
   -0.090000     0.880000     0.000000
    0.000000     0.000000     0.000000
   -0.160000     0.080000    -0.260000
   -0.160000     0.080000     0.260000
    0.000000     0.000000     0.000000
    0.000000     0.000000     0.000000
    0.000000     0.000000     0.000000
    0.010000    -0.010000     0.000000
    0.000000     0.000000     0.000000
    0.000000     0.000000     0.000000
vibration    27
    0.000000     0.000000     0.000000
    0.000000    -0.010000     0.000000
    0.000000     0.000000     0.000000
    0.000000     0.000000     0.000000
    0.000000     0.000000     0.000000
    0.000000     0.000000     0.000000
    0.000000     0.000000     0.000000
   -0.040000     0.090000     0.000000
    0.550000    -0.710000     0.000000
   -0.040000    -0.160000     0.260000
   -0.040000    -0.160000    -0.260000
