[Molden Format]
[Atoms] Angs
 C     1  6     0.850805    -1.436468     0.131688
 H     2  1     0.850805    -1.436468     1.217479
 H     3  1     1.876625    -1.436468    -0.245436
 H     4  1     0.358370    -2.336299    -0.245553
 C     5  6     0.142804    -0.241612    -0.449161
 O     6  8    -0.005025     0.007019    -1.594740
Cl     7 17    -0.529839     0.895386     0.819780
[FREQ]
 -138.8211
  356.7378
  430.8941
  533.9050
  585.6907
  983.9503
 1030.0803
 1094.8400
 1388.1291
 1466.2828
 1476.5590
 1884.2635
 3049.2161
 3110.8384
 3174.1916
[INT]
    0.3823
    3.6242
   27.0374
    2.3848
  128.0927
  114.4389
    4.3672
  140.6105
   18.9746
    8.5200
    9.9538
  363.1906
    0.3095
    0.8523
    2.0724
[FR-COORD]
 C     1.607788    -2.714531     0.248854
 H     1.607788    -2.714531     2.300702
 H     3.546307    -2.714531    -0.463807
 H     0.677221    -4.414965    -0.464028
 C     0.269860    -0.456580    -0.848791
 O    -0.009496     0.013264    -3.013622
Cl    -1.001251     1.692034     1.549160
[FR-NORM-COORD]
vibration     1
    0.000000     0.000000     0.000000
    0.000000     0.000000     0.520000
    0.430000     0.270000    -0.330000
   -0.430000    -0.270000    -0.330000
    0.000000     0.000000     0.030000
    0.000000     0.000000     0.030000
    0.000000     0.000000    -0.020000
vibration     2
    0.320000     0.050000     0.000000
    0.660000    -0.160000     0.000000
    0.300000     0.300000     0.000000
    0.300000     0.300000     0.000000
   -0.010000    -0.160000     0.000000
   -0.030000    -0.160000     0.000000
   -0.130000     0.100000     0.000000
vibration     3
    0.020000     0.190000     0.000000
   -0.080000     0.270000     0.000000
    0.030000     0.150000     0.000000
    0.030000     0.150000     0.000000
    0.240000     0.280000     0.000000
    0.690000     0.110000     0.000000
   -0.400000    -0.230000     0.000000
vibration     4
    0.000000     0.000000     0.010000
    0.000000     0.000000     0.360000
   -0.290000     0.470000     0.200000
    0.290000    -0.470000     0.200000
    0.000000     0.000000    -0.390000
    0.000000     0.000000     0.160000
    0.000000     0.000000     0.040000
vibration     5
    0.170000    -0.240000     0.000000
   -0.280000     0.030000     0.000000
    0.160000    -0.560000     0.020000
    0.160000    -0.560000    -0.020000
    0.300000     0.050000     0.000000
   -0.170000     0.180000     0.000000
   -0.090000     0.010000     0.000000
vibration     6
   -0.080000     0.270000     0.000000
   -0.610000     0.620000     0.000000
   -0.130000    -0.060000     0.050000
   -0.120000    -0.060000    -0.050000
    0.270000    -0.150000     0.000000
   -0.070000    -0.140000     0.000000
   -0.010000     0.010000     0.000000
vibration     7
    0.000000     0.000000     0.160000
    0.000000     0.000000    -0.380000
    0.440000    -0.430000    -0.160000
   -0.440000     0.430000    -0.160000
    0.000000     0.000000    -0.160000
    0.000000     0.000000     0.030000
    0.000000     0.000000     0.010000
vibration     8
   -0.160000    -0.060000     0.000000
    0.430000    -0.410000     0.000000
   -0.040000     0.520000    -0.110000
   -0.040000     0.520000     0.110000
    0.190000    -0.030000     0.000000
   -0.030000     0.030000     0.000000
   -0.010000     0.000000     0.000000
vibration     9
    0.100000    -0.090000     0.000000
   -0.390000     0.200000     0.000000
   -0.380000     0.400000     0.310000
   -0.380000     0.400000    -0.310000
   -0.010000     0.000000     0.000000
    0.000000     0.000000     0.000000
    0.000000     0.000000     0.000000
vibration    10
    0.010000     0.060000     0.000000
    0.480000    -0.250000     0.000000
   -0.420000    -0.270000     0.320000
   -0.420000    -0.270000    -0.320000
    0.030000    -0.010000     0.000000
    0.000000     0.010000     0.000000
    0.000000     0.000000     0.000000
vibration    11
    0.000000     0.000000    -0.050000
    0.000000     0.000000     0.720000
   -0.080000    -0.480000     0.050000
    0.080000     0.480000     0.050000
    0.000000     0.000000    -0.030000
    0.000000     0.000000     0.000000
    0.000000     0.000000     0.000000
vibration    12
    0.010000    -0.060000     0.000000
    0.190000    -0.160000     0.000000
   -0.020000     0.020000     0.020000
   -0.020000     0.020000    -0.020000
    0.140000     0.780000     0.000000
   -0.160000    -0.530000     0.000000
    0.010000     0.000000     0.000000
vibration    13
   -0.050000     0.020000     0.000000
   -0.200000    -0.310000     0.000000
    0.380000     0.030000     0.540000
    0.380000     0.030000    -0.530000
    0.000000     0.000000     0.000000
    0.000000     0.000000     0.000000
    0.000000     0.000000     0.000000
vibration    14
    0.000000     0.000000     0.090000
    0.000000     0.000000     0.020000
   -0.420000    -0.030000    -0.560000
    0.420000     0.030000    -0.560000
    0.000000     0.000000     0.000000
    0.000000     0.000000     0.000000
    0.000000     0.000000     0.000000
vibration    15
   -0.060000    -0.070000     0.000000
    0.490000     0.790000     0.000000
    0.140000     0.000000     0.210000
    0.140000     0.000000    -0.210000
    0.000000     0.000000     0.000000
    0.000000     0.000000     0.000000
    0.000000     0.000000     0.000000
