 Entering Gaussian System, Link 0=/usr/local/g03/g03
 Initial command:
 /usr/local/g03/l1.exe /home/chaquin/ENSEIGNEMENT/Gau-1126.inp -scrdir=/home/chaquin/ENSEIGNEMENT/
 Entering Link 1 = /usr/local/g03/l1.exe PID=      1141.
  
 Copyright (c) 1988,1990,1992,1993,1995,1998,2003,2004, Gaussian, Inc.
                  All Rights Reserved.
  
 This is the Gaussian(R) 03 program.  It is based on the
 the Gaussian(R) 98 system (copyright 1998, Gaussian, Inc.),
 the Gaussian(R) 94 system (copyright 1995, Gaussian, Inc.),
 the Gaussian 92(TM) system (copyright 1992, Gaussian, Inc.),
 the Gaussian 90(TM) system (copyright 1990, Gaussian, Inc.),
 the Gaussian 88(TM) system (copyright 1988, Gaussian, Inc.),
 the Gaussian 86(TM) system (copyright 1986, Carnegie Mellon
 University), and the Gaussian 82(TM) system (copyright 1983,
 Carnegie Mellon University). Gaussian is a federally registered
 trademark of Gaussian, Inc.
  
 This software contains proprietary and confidential information,
 including trade secrets, belonging to Gaussian, Inc.
  
 This software is provided under written license and may be
 used, copied, transmitted, or stored only in accord with that
 written license.
  
 The following legend is applicable only to US Government
 contracts under FAR:
  
                    RESTRICTED RIGHTS LEGEND
  
 Use, reproduction and disclosure by the US Government is
 subject to restrictions as set forth in subparagraphs (a)
 and (c) of the Commercial Computer Software - Restricted
 Rights clause in FAR 52.227-19.
  
 Gaussian, Inc.
 340 Quinnipiac St., Bldg. 40, Wallingford CT 06492
  
  
 ---------------------------------------------------------------
 Warning -- This program may not be used in any manner that
 competes with the business of Gaussian, Inc. or will provide
 assistance to any competitor of Gaussian, Inc.  The licensee
 of this program is prohibited from giving any competitor of
 Gaussian, Inc. access to this program.  By using this program,
 the user acknowledges that Gaussian, Inc. is engaged in the
 business of creating and licensing software in the field of
 computational chemistry and represents and warrants to the
 licensee that it is not a competitor of Gaussian, Inc. and that
 it will not use this program in any manner prohibited above.
 ---------------------------------------------------------------
  

 Cite this work as:
 Gaussian 03, Revision C.02,
 M. J. Frisch, G. W. Trucks, H. B. Schlegel, G. E. Scuseria, 
 M. A. Robb, J. R. Cheeseman, J. A. Montgomery, Jr., T. Vreven, 
 K. N. Kudin, J. C. Burant, J. M. Millam, S. S. Iyengar, J. Tomasi, 
 V. Barone, B. Mennucci, M. Cossi, G. Scalmani, N. Rega, 
 G. A. Petersson, H. Nakatsuji, M. Hada, M. Ehara, K. Toyota, 
 R. Fukuda, J. Hasegawa, M. Ishida, T. Nakajima, Y. Honda, O. Kitao, 
 H. Nakai, M. Klene, X. Li, J. E. Knox, H. P. Hratchian, J. B. Cross, 
 C. Adamo, J. Jaramillo, R. Gomperts, R. E. Stratmann, O. Yazyev, 
 A. J. Austin, R. Cammi, C. Pomelli, J. W. Ochterski, P. Y. Ayala, 
 K. Morokuma, G. A. Voth, P. Salvador, J. J. Dannenberg, 
 V. G. Zakrzewski, S. Dapprich, A. D. Daniels, M. C. Strain, 
 O. Farkas, D. K. Malick, A. D. Rabuck, K. Raghavachari, 
 J. B. Foresman, J. V. Ortiz, Q. Cui, A. G. Baboul, S. Clifford, 
 J. Cioslowski, B. B. Stefanov, G. Liu, A. Liashenko, P. Piskorz, 
 I. Komaromi, R. L. Martin, D. J. Fox, T. Keith, M. A. Al-Laham, 
 C. Y. Peng, A. Nanayakkara, M. Challacombe, P. M. W. Gill, 
 B. Johnson, W. Chen, M. W. Wong, C. Gonzalez, and J. A. Pople, 
 Gaussian, Inc., Wallingford CT, 2004.
 
 ******************************************
 Gaussian 03:  AM64L-G03RevC.02 12-Jun-2004
                 7-Apr-2013 
 ******************************************
 %chk=geom
 ----------------------------------------------------
 # B3LYP 6-311+G** geom=checkpoint freq pop=none test
 ----------------------------------------------------
 1/10=4,29=2,30=1,38=1/1,3;
 2/40=1/2;
 3/5=4,6=6,7=111,11=2,16=1,25=1,30=1,74=-5/1,2,3;
 4//1;
 5/5=2,38=5/2;
 8/6=4,10=90,11=11/1;
 11/6=1,8=1,9=11,15=111,16=1/1,2,10;
 10/6=1/2;
 7/8=1,10=1,25=1/1,2,3,16;
 1/10=4,30=1/3;
 99//99;
 --------------------------------
 *** Vibrations CH3-COCl **** 0 1
 --------------------------------
 Z-Matrix taken from the checkpoint file:
 geom.chk
 Charge =  0 Multiplicity = 1
 C
 H,1,hc2
 H,1,hc3,2,hch3
 H,1,hc4,2,hch4,3,dih4,0
 C,1,cc5,2,cch5,3,dih5,0
 O,5,oc6,1,occ6,2,dih6,0
 Cl,5,clc7,6,clco7,1,dih7,0
      Variables:
 hc2=1.0857905
 hc3=1.09294566
 hch3=110.1850234
 hc4=1.09293099
 hch4=110.19184878
 dih4=118.6897927
 cc5=1.50543351
 cch5=112.69558349
 dih5=-120.64846858
 oc6=1.18153417
 occ6=126.86653761
 dih6=180.02632789
 clc7=1.83178204
 clco7=119.67611934
 dih7=179.99450172
 Recover connectivity data from disk.

 GradGradGradGradGradGradGradGradGradGradGradGradGradGradGradGradGradGrad
 Berny optimization.
 Initialization pass.
                       ----------------------------
                       !    Initial Parameters    !
                       ! (Angstroms and Degrees)  !
 ----------------------                            ----------------------
 !      Name          Value   Derivative information (Atomic Units)     !
 ------------------------------------------------------------------------
 !       hc2         1.0858   calculate D2E/DX2 analytically            !
 !       hc3         1.0929   calculate D2E/DX2 analytically            !
 !      hch3       110.185    calculate D2E/DX2 analytically            !
 !       hc4         1.0929   calculate D2E/DX2 analytically            !
 !      hch4       110.1918   calculate D2E/DX2 analytically            !
 !      dih4       118.6898   calculate D2E/DX2 analytically            !
 !       cc5         1.5054   calculate D2E/DX2 analytically            !
 !      cch5       112.6956   calculate D2E/DX2 analytically            !
 !      dih5      -120.6485   calculate D2E/DX2 analytically            !
 !       oc6         1.1815   calculate D2E/DX2 analytically            !
 !      occ6       126.8665   calculate D2E/DX2 analytically            !
 !      dih6       180.0263   calculate D2E/DX2 analytically            !
 !      clc7         1.8318   calculate D2E/DX2 analytically            !
 !      clco7      119.6761   calculate D2E/DX2 analytically            !
 !      dih7       179.9945   calculate D2E/DX2 analytically            !
 ------------------------------------------------------------------------
 Trust Radius=3.00D-01 FncErr=1.00D-07 GrdErr=1.00D-07
 Number of steps in this run=   2 maximum allowed number of steps=   2.
 GradGradGradGradGradGradGradGradGradGradGradGradGradGradGradGradGradGrad

                          Input orientation:                          
 ---------------------------------------------------------------------
 Center     Atomic     Atomic              Coordinates (Angstroms)
 Number     Number      Type              X           Y           Z
 ---------------------------------------------------------------------
    1          6             0        0.850805   -1.436468    0.131688
    2          1             0        0.850805   -1.436468    1.217479
    3          1             0        1.876625   -1.436468   -0.245436
    4          1             0        0.358370   -2.336299   -0.245553
    5          6             0        0.142804   -0.241612   -0.449161
    6          8             0       -0.005025    0.007019   -1.594740
    7         17             0       -0.529839    0.895386    0.819780
 ---------------------------------------------------------------------
                    Distance matrix (angstroms):
                    1          2          3          4          5
     1  C    0.000000
     2  H    1.085790   0.000000
     3  H    1.092946   1.786736   0.000000
     4  H    1.092931   1.786799   1.764878   0.000000
     5  C    1.505434   2.169477   2.115495   2.115570   0.000000
     6  O    2.407624   3.274854   2.728531   2.728277   1.181534
     7  Cl   2.795924   2.738957   3.516148   3.516765   1.831782
                    6          7
     6  O    0.000000
     7  Cl   2.625745   0.000000
 Stoichiometry    C2H3ClO
 Framework group  C1[X(C2H3ClO)]
 Deg. of freedom    15
 Full point group                 C1      NOp   1
 Largest Abelian subgroup         C1      NOp   1
 Largest concise Abelian subgroup C1      NOp   1
                         Standard orientation:                         
 ---------------------------------------------------------------------
 Center     Atomic     Atomic              Coordinates (Angstroms)
 Number     Number      Type              X           Y           Z
 ---------------------------------------------------------------------
    1          6             0        1.357669   -0.980502   -0.000014
    2          1             0        0.793150   -1.908003   -0.000529
    3          1             0        2.000060   -0.930496    0.882803
    4          1             0        2.001029   -0.929969   -0.882075
    5          6             0        0.473270    0.237762   -0.000037
    6          8             0        0.821785    1.366726    0.000010
    7         17             0       -1.314950   -0.159347    0.000001
 ---------------------------------------------------------------------
 Rotational constants (GHZ):     10.2652922      4.7478340      3.3131618
 Standard basis: 6-311+G(d,p) (5D, 7F)
 There are   114 symmetry adapted basis functions of A   symmetry.
 Integral buffers will be    131072 words long.
 Raffenetti 2 integral format.
 Two-electron integral symmetry is turned on.
   114 basis functions,   185 primitive gaussians,   118 cartesian basis functions
    20 alpha electrons       20 beta electrons
       nuclear repulsion energy       147.7712897685 Hartrees.
 NAtoms=    7 NActive=    7 NUniq=    7 SFac= 1.00D+00 NAtFMM=   60 Big=F
 One-electron integrals computed using PRISM.
 NBasis=   114 RedAO= T  NBF=   114
 NBsUse=   114 1.00D-06 NBFU=   114
 Harris functional with IExCor=  402 diagonalized for initial guess.
 ExpMin= 4.38D-02 ExpMax= 1.06D+05 ExpMxC= 3.62D+03 IAcc=2 IRadAn=         4 AccDes= 0.00D+00
 HarFok:  IExCor= 402 AccDes= 0.00D+00 IRadAn=         4 IDoV=1
 ScaDFX=  1.000000  1.000000  1.000000  1.000000
 Initial guess orbital symmetries:
       Occupied  (A) (A) (A) (A) (A) (A) (A) (A) (A) (A) (A) (A)
                 (A) (A) (A) (A) (A) (A) (A) (A)
       Virtual   (A) (A) (A) (A) (A) (A) (A) (A) (A) (A) (A) (A)
                 (A) (A) (A) (A) (A) (A) (A) (A) (A) (A) (A) (A)
                 (A) (A) (A) (A) (A) (A) (A) (A) (A) (A) (A) (A)
                 (A) (A) (A) (A) (A) (A) (A) (A) (A) (A) (A) (A)
                 (A) (A) (A) (A) (A) (A) (A) (A) (A) (A) (A) (A)
                 (A) (A) (A) (A) (A) (A) (A) (A) (A) (A) (A) (A)
                 (A) (A) (A) (A) (A) (A) (A) (A) (A) (A) (A) (A)
                 (A) (A) (A) (A) (A) (A) (A) (A) (A) (A)
 The electronic state of the initial guess is 1-A.
 Requested convergence on RMS density matrix=1.00D-08 within 128 cycles.
 Requested convergence on MAX density matrix=1.00D-06.
 Requested convergence on             energy=1.00D-06.
 No special actions if energy rises.
 SCF Done:  E(RB+HF-LYP) =  -613.523631892     A.U. after   12 cycles
             Convg  =    0.2598D-08             -V/T =  2.0027
             S**2   =   0.0000
 Range of M.O.s used for correlation:     1   114
 NBasis=   114 NAE=    20 NBE=    20 NFC=     0 NFV=     0
 NROrb=    114 NOA=    20 NOB=    20 NVA=    94 NVB=    94

 **** Warning!!: The largest alpha MO coefficient is  0.29300805D+02

 Symmetrizing basis deriv contribution to polar:
 IMax=3 JMax=2 DiffMx= 0.00D+00
 G2DrvN: will do    8 centers at a time, making    1 passes doing MaxLOS=2.
 FoFDir/FoFCou used for L=0 through L=2.
 DoAtom=TTTTTTT
          Differentiating once with respect to electric field.
                with respect to dipole field.
          Differentiating once with respect to nuclear coordinates.
 Integrals replicated using symmetry in FoFDir.
 MinBra= 0 MaxBra= 2 Meth= 1.
 IRaf=       0 NMat=  24 IRICut=      24 DoRegI=T DoRafI=T ISym2E= 2 JSym2E=2.
          There are  24 degrees of freedom in the 1st order CPHF.
    21 vectors were produced by pass  0.
 AX will form  21 AO Fock derivatives at one time.
    21 vectors were produced by pass  1.
    21 vectors were produced by pass  2.
    21 vectors were produced by pass  3.
    21 vectors were produced by pass  4.
    18 vectors were produced by pass  5.
     3 vectors were produced by pass  6.
     3 vectors were produced by pass  7.
 Inv2:  IOpt= 1 Iter= 1 AM= 1.70D-15 Conv= 1.00D-12.
 Inverted reduced A of dimension  129 with in-core refinement.
 Isotropic polarizability for W=    0.000000       40.13 Bohr**3.
 End of Minotr Frequency-dependent properties file   721 does not exist.
 Full mass-weighted force constant matrix:
 Low frequencies --- -138.8613   -7.4212   -0.0024   -0.0022    0.0007    8.9069
 Low frequencies ---   10.3032  356.7378  430.8941
 ******    1 imaginary frequencies (negative Signs) ****** 
 Diagonal vibrational polarizability:
       21.2866567       2.9162410       0.9950150
 Harmonic frequencies (cm**-1), IR intensities (KM/Mole), Raman scattering
 activities (A**4/AMU), depolarization ratios for plane and unpolarized
 incident light, reduced masses (AMU), force constants (mDyne/A),
 and normal coordinates:
                     1                      2                      3
                     A                      A                      A
 Frequencies --  -138.8211               356.7378               430.8941
 Red. masses --     1.0487                 3.6977                17.5245
 Frc consts  --     0.0119                 0.2773                 1.9171
 IR Inten    --     0.3823                 3.6242                27.0374
 Atom AN      X      Y      Z        X      Y      Z        X      Y      Z
   1   6     0.00   0.00   0.00     0.32   0.05   0.00     0.02   0.19   0.00
   2   1     0.00   0.00   0.52     0.66  -0.16   0.00    -0.08   0.27   0.00
   3   1     0.43   0.27  -0.33     0.30   0.30   0.00     0.03   0.15   0.00
   4   1    -0.43  -0.27  -0.33     0.30   0.30   0.00     0.03   0.15   0.00
   5   6     0.00   0.00   0.03    -0.01  -0.16   0.00     0.24   0.28   0.00
   6   8     0.00   0.00   0.03    -0.03  -0.16   0.00     0.69   0.11   0.00
   7  17     0.00   0.00  -0.02    -0.13   0.10   0.00    -0.40  -0.23   0.00
                     4                      5                      6
                     A                      A                      A
 Frequencies --   533.9050               585.6907               983.9503
 Red. masses --     3.1206                 4.1505                 3.3582
 Frc consts  --     0.5241                 0.8389                 1.9156
 IR Inten    --     2.3848               128.0927               114.4389
 Atom AN      X      Y      Z        X      Y      Z        X      Y      Z
   1   6     0.00   0.00   0.01     0.17  -0.24   0.00    -0.08   0.27   0.00
   2   1     0.00   0.00   0.36    -0.28   0.03   0.00    -0.61   0.62   0.00
   3   1    -0.29   0.47   0.20     0.16  -0.56   0.02    -0.13  -0.06   0.05
   4   1     0.29  -0.47   0.20     0.16  -0.56  -0.02    -0.12  -0.06  -0.05
   5   6     0.00   0.00  -0.39     0.30   0.05   0.00     0.27  -0.15   0.00
   6   8     0.00   0.00   0.16    -0.17   0.18   0.00    -0.07  -0.14   0.00
   7  17     0.00   0.00   0.04    -0.09   0.01   0.00    -0.01   0.01   0.00
                     7                      8                      9
                     A                      A                      A
 Frequencies --  1030.0803              1094.8400              1388.1291
 Red. masses --     1.5870                 1.7855                 1.2074
 Frc consts  --     0.9921                 1.2610                 1.3707
 IR Inten    --     4.3672               140.6105                18.9746
 Atom AN      X      Y      Z        X      Y      Z        X      Y      Z
   1   6     0.00   0.00   0.16    -0.16  -0.06   0.00     0.10  -0.09   0.00
   2   1     0.00   0.00  -0.38     0.43  -0.41   0.00    -0.39   0.20   0.00
   3   1     0.44  -0.43  -0.16    -0.04   0.52  -0.11    -0.38   0.40   0.31
   4   1    -0.44   0.43  -0.16    -0.04   0.52   0.11    -0.38   0.40  -0.31
   5   6     0.00   0.00  -0.16     0.19  -0.03   0.00    -0.01   0.00   0.00
   6   8     0.00   0.00   0.03    -0.03   0.03   0.00     0.00   0.00   0.00
   7  17     0.00   0.00   0.01    -0.01   0.00   0.00     0.00   0.00   0.00
                    10                     11                     12
                     A                      A                      A
 Frequencies --  1466.2828              1476.5590              1884.2635
 Red. masses --     1.0611                 1.0444                12.5270
 Frc consts  --     1.3442                 1.3416                26.2049
 IR Inten    --     8.5200                 9.9538               363.1906
 Atom AN      X      Y      Z        X      Y      Z        X      Y      Z
   1   6     0.01   0.06   0.00     0.00   0.00  -0.05     0.01  -0.06   0.00
   2   1     0.48  -0.25   0.00     0.00   0.00   0.72     0.19  -0.16   0.00
   3   1    -0.42  -0.27   0.32    -0.08  -0.48   0.05    -0.02   0.02   0.02
   4   1    -0.42  -0.27  -0.32     0.08   0.48   0.05    -0.02   0.02  -0.02
   5   6     0.03  -0.01   0.00     0.00   0.00  -0.03     0.14   0.78   0.00
   6   8     0.00   0.01   0.00     0.00   0.00   0.00    -0.16  -0.53   0.00
   7  17     0.00   0.00   0.00     0.00   0.00   0.00     0.01   0.00   0.00
                    13                     14                     15
                     A                      A                      A
 Frequencies --  3049.2161              3110.8384              3174.1916
 Red. masses --     1.0371                 1.1000                 1.1019
 Frc consts  --     5.6814                 6.2720                 6.5414
 IR Inten    --     0.3095                 0.8523                 2.0724
 Atom AN      X      Y      Z        X      Y      Z        X      Y      Z
   1   6    -0.05   0.02   0.00     0.00   0.00   0.09    -0.06  -0.07   0.00
   2   1    -0.20  -0.31   0.00     0.00   0.00   0.02     0.49   0.79   0.00
   3   1     0.38   0.03   0.54    -0.42  -0.03  -0.56     0.14   0.00   0.21
   4   1     0.38   0.03  -0.53     0.42   0.03  -0.56     0.14   0.00  -0.21
   5   6     0.00   0.00   0.00     0.00   0.00   0.00     0.00   0.00   0.00
   6   8     0.00   0.00   0.00     0.00   0.00   0.00     0.00   0.00   0.00
   7  17     0.00   0.00   0.00     0.00   0.00   0.00     0.00   0.00   0.00

 -------------------
 - Thermochemistry -
 -------------------
 Temperature   298.150 Kelvin.  Pressure   1.00000 Atm.
 Atom  1 has atomic number  6 and mass  12.00000
 Atom  2 has atomic number  1 and mass   1.00783
 Atom  3 has atomic number  1 and mass   1.00783
 Atom  4 has atomic number  1 and mass   1.00783
 Atom  5 has atomic number  6 and mass  12.00000
 Atom  6 has atomic number  8 and mass  15.99491
 Atom  7 has atomic number 17 and mass  34.96885
 Molecular mass:    77.98724 amu.
 Principal axes and moments of inertia in atomic units:
                           1         2         3
     EIGENVALUES --   175.81002 380.11886 544.71870
           X            0.99503  -0.09957   0.00000
           Y            0.09957   0.99503   0.00000
           Z            0.00000   0.00000   1.00000
 This molecule is an asymmetric top.
 Rotational symmetry number  1.
 Rotational temperatures (Kelvin)      0.49266     0.22786     0.15901
 Rotational constants (GHZ):          10.26529     4.74783     3.31316
    1 imaginary frequencies ignored.
 Zero-point vibrational energy     123009.5 (Joules/Mol)
                                   29.39997 (Kcal/Mol)
 Warning -- explicit consideration of   4 degrees of freedom as
           vibrations may cause significant error
 Vibrational temperatures:    513.27   619.96   768.17   842.68  1415.68
          (Kelvin)           1482.05  1575.23  1997.21  2109.65  2124.44
                             2711.03  4387.14  4475.80  4566.95
 
 Zero-point correction=                           0.046852 (Hartree/Particle)
 Thermal correction to Energy=                    0.050804
 Thermal correction to Enthalpy=                  0.051748
 Thermal correction to Gibbs Free Energy=         0.019716
 Sum of electronic and zero-point Energies=           -613.476780
 Sum of electronic and thermal Energies=              -613.472828
 Sum of electronic and thermal Enthalpies=            -613.471883
 Sum of electronic and thermal Free Energies=         -613.503916
 
                     E (Thermal)             CV                S
                      KCal/Mol        Cal/Mol-Kelvin    Cal/Mol-Kelvin
 Total                   31.880             12.483             67.418
 Electronic               0.000              0.000              0.000
 Translational            0.889              2.981             38.977
 Rotational               0.889              2.981             25.102
 Vibrational             30.103              6.521              3.340
 Vibration  1             0.732              1.561              1.136
 Vibration  2             0.792              1.403              0.856
 Vibration  3             0.889              1.175              0.579
 Vibration  4             0.943              1.062              0.475
                       Q            Log10(Q)             Ln(Q)
 Total Bot       0.853744D-09         -9.068672        -20.881389
 Total V=0       0.303132D+13         12.481631         28.740018
 Vib (Bot)       0.461767D-21        -21.335577        -49.126981
 Vib (Bot)  1    0.514909D+00         -0.288269         -0.663765
 Vib (Bot)  2    0.404083D+00         -0.393529         -0.906134
 Vib (Bot)  3    0.298455D+00         -0.525121         -1.209136
 Vib (Bot)  4    0.258691D+00         -0.587219         -1.352122
 Vib (V=0)       0.163956D+01          0.214727          0.494426
 Vib (V=0)  1    0.121773D+01          0.085550          0.196986
 Vib (V=0)  2    0.114287D+01          0.057997          0.133544
 Vib (V=0)  3    0.108230D+01          0.034348          0.079090
 Vib (V=0)  4    0.106296D+01          0.026516          0.061055
 Electronic      0.100000D+01          0.000000          0.000000
 Translational   0.270701D+08          7.432491         17.113942
 Rotational      0.682990D+05          4.834414         11.131650
 ***** Axes restored to original set *****
 -------------------------------------------------------------------
 Center     Atomic                   Forces (Hartrees/Bohr)
 Number     Number              X              Y              Z
 -------------------------------------------------------------------
    1          6          -0.000095337    0.000179497   -0.000029768
    2          1           0.000051742   -0.000094632    0.000008457
    3          1           0.000020384   -0.000020363   -0.000003355
    4          1           0.000004233   -0.000028591   -0.000005537
    5          6          -0.000067352    0.000114960    0.000172169
    6          8           0.000021749   -0.000042046   -0.000043236
    7         17           0.000064582   -0.000108825   -0.000098730
 -------------------------------------------------------------------
 Cartesian Forces:  Max     0.000179497 RMS     0.000079544
 ------------------------------------------------------------------------
           Internal Coordinate Forces (Hartree/Bohr or radian)
 Cent Atom N1     Length/X     N2     Alpha/Y      N3      Beta/Z       J
 ------------------------------------------------------------------------
   1  C 
   2  H     1   0.000008(   1)
   3  H     1   0.000020(   2)  2  -0.000008(   7)
   4  H     1   0.000024(   3)  2  -0.000006(   8)  3  -0.000034(  12)  0
   5  C     1  -0.000049(   4)  2   0.000034(   9)  3  -0.000006(  13)  0
   6  O     5   0.000030(   5)  1  -0.000069(  10)  2   0.000005(  14)  0
   7  Cl    5  -0.000160(   6)  6   0.000057(  11)  1   0.000000(  15)  0
 ------------------------------------------------------------------------
 Internal  Forces:  Max     0.000159658 RMS     0.000051859

 GradGradGradGradGradGradGradGradGradGradGradGradGradGradGradGradGradGrad
 Berny optimization.
 Search for a local minimum.
 Step number   1 out of a maximum of   2
 All quantities printed in internal units (Hartrees-Bohrs-Radians)
 Second derivative matrix not updated -- analytic derivatives used.
 The second derivative matrix:
                          hc2       hc3      hch3       hc4      hch4
           hc2          0.35305
           hc3          0.00196   0.33832
           hch3         0.01462  -0.00012   0.19194
           hc4          0.00196   0.00247  -0.00930   0.33835
           hch4         0.01461  -0.00930   0.02999  -0.00012   0.19195
           dih4        -0.00040   0.01410  -0.05306  -0.00040   0.01298
           cc5          0.00050   0.00511  -0.01083   0.00511  -0.01082
           cch5         0.01036  -0.00765   0.03801  -0.00765   0.03805
           dih5         0.00000  -0.01446   0.06573   0.01445  -0.06573
           oc6         -0.00009  -0.00108  -0.00172  -0.00108  -0.00172
           occ6         0.01701  -0.00741  -0.00145  -0.00742  -0.00144
           dih6         0.00000  -0.00193   0.00721   0.00193  -0.00719
           clc7         0.00015   0.00036  -0.00237   0.00036  -0.00237
           clco7        0.00982  -0.00410  -0.00118  -0.00410  -0.00118
           dih7         0.00000  -0.00119   0.00283   0.00119  -0.00284
                         dih4       cc5      cch5      dih5       oc6
           dih4         0.17079
           cc5         -0.02545   0.27973
           cch5         0.06444   0.01232   0.24012
           dih5        -0.08432   0.00001  -0.00002   0.16850
           oc6          0.00287   0.03604   0.00966   0.00000   0.93724
           occ6         0.02088   0.00380   0.03696  -0.00004   0.06335
           dih6         0.00328   0.00001   0.00001  -0.00661   0.00000
           clc7        -0.00745   0.01773  -0.00272   0.00000   0.07693
           clco7        0.01481  -0.03814   0.00394  -0.00003   0.05297
           dih7        -0.01169  -0.00001   0.00000   0.02352   0.00000
                         occ6      dih6      clc7      clco7     dih7
           occ6         0.41673
           dih6        -0.00003  -0.00635
           clc7        -0.06847   0.00000   0.14278
           clco7        0.21968  -0.00002  -0.00618   0.47492
           dih7         0.00001   0.00953   0.00000   0.00000   0.06352
     Eigenvalues ---   -0.01004   0.04930   0.06464   0.09293   0.10632
     Eigenvalues ---    0.19379   0.22999   0.27327   0.29648   0.32353
     Eigenvalues ---    0.34413   0.34955   0.35924   0.66189   0.96654
 Eigenvalue   1 out of range, new value =    0.010037 Eigenvector:
                           1
           hc2          0.00002
           hc3          0.01237
           hch3        -0.08608
           hc4         -0.01211
           hch4         0.08449
           dih4        -0.00535
           cc5         -0.00063
           cch5         0.00160
           dih5         0.11907
           oc6          0.00002
           occ6         0.00013
           dih6         0.97263
           clc7        -0.00015
           clco7        0.00008
           dih7        -0.15790
 Angle between quadratic step and forces=  23.16 degrees.
 Linear search not attempted -- first point.
 Variable       Old X    -DE/DX   Delta X   Delta X   Delta X     New X
                                 (Linear)    (Quad)   (Total)
   hc2        2.05185   0.00001   0.00000   0.00005   0.00005   2.05189
   hc3        2.06537   0.00002   0.00000   0.00008   0.00008   2.06544
   hch3       1.92309  -0.00001   0.00000  -0.00022  -0.00022   1.92287
   hc4        2.06534   0.00002   0.00000   0.00008   0.00008   2.06542
   hch4       1.92321  -0.00001   0.00000  -0.00016  -0.00016   1.92305
   dih4       2.07153  -0.00003   0.00000  -0.00065  -0.00065   2.07088
   cc5        2.84486  -0.00005   0.00000  -0.00014  -0.00014   2.84472
   cch5       1.96691   0.00003   0.00000   0.00046   0.00046   1.96736
   dih5      -2.10571  -0.00001   0.00000  -0.00032  -0.00032  -2.10603
   oc6        2.23278   0.00003   0.00000   0.00018   0.00018   2.23296
   occ6       2.21424  -0.00007   0.00000  -0.00066  -0.00066   2.21358
   dih6       3.14205   0.00001   0.00000   0.00053   0.00053   3.14258
   clc7       3.46157  -0.00016   0.00000  -0.00153  -0.00153   3.46004
  clco7       2.08874   0.00006   0.00000   0.00039   0.00039   2.08913
   dih7       3.14150   0.00000   0.00000  -0.00006  -0.00006   3.14144
         Item               Value     Threshold  Converged?
 Maximum Force            0.000160     0.000450     YES
 RMS     Force            0.000052     0.000300     YES
 Maximum Displacement     0.001529     0.001800     YES
 RMS     Displacement     0.000521     0.001200     YES
 Predicted change in Energy=-1.886964D-07
 Optimization completed.
    -- Stationary point found.
                       ----------------------------
                       !   Optimized Parameters   !
                       ! (Angstroms and Degrees)  !
 ----------------------                            ----------------------
 !      Name          Value   Derivative information (Atomic Units)     !
 ------------------------------------------------------------------------
 !       hc2         1.0858   -DE/DX =    0.0                           !
 !       hc3         1.0929   -DE/DX =    0.0                           !
 !      hch3       110.185    -DE/DX =    0.0                           !
 !       hc4         1.0929   -DE/DX =    0.0                           !
 !      hch4       110.1918   -DE/DX =    0.0                           !
 !      dih4       118.6898   -DE/DX =    0.0                           !
 !       cc5         1.5054   -DE/DX =    0.0                           !
 !      cch5       112.6956   -DE/DX =    0.0                           !
 !      dih5      -120.6485   -DE/DX =    0.0                           !
 !       oc6         1.1815   -DE/DX =    0.0                           !
 !      occ6       126.8665   -DE/DX =   -0.0001                        !
 !      dih6       180.0263   -DE/DX =    0.0                           !
 !      clc7         1.8318   -DE/DX =   -0.0002                        !
 !      clco7      119.6761   -DE/DX =    0.0001                        !
 !      dih7       179.9945   -DE/DX =    0.0                           !
 ------------------------------------------------------------------------
 GradGradGradGradGradGradGradGradGradGradGradGradGradGradGradGradGradGrad


 Test job not archived.
 1\1\GINC-CLUSTER-BIO\Freq\RB3LYP\6-311+G(d,p)\C2H3Cl1O1\CHAQUIN\07-Apr
 -2013\1\\# B3LYP 6-311+G** GEOM=CHECKPOINT FREQ POP=NONE TEST\\*** Vib
 rations CH3-COCl **** 0 1\\0,1\C\H,1,hc2\H,1,hc3,2,hch3\H,1,hc4,2,hch4
 ,3,dih4,0\C,1,cc5,2,cch5,3,dih5,0\O,5,oc6,1,occ6,2,dih6,0\Cl,5,clc7,6,
 clco7,1,dih7,0\\hc2=1.0857905\hc3=1.09294566\hch3=110.1850234\hc4=1.09
 293099\hch4=110.19184878\dih4=118.6897927\cc5=1.50543351\cch5=112.6955
 8349\dih5=-120.64846858\oc6=1.18153417\occ6=126.86653761\dih6=180.0263
 2789\clc7=1.83178204\clco7=119.67611934\dih7=179.99450172\\Version=AM6
 4L-G03RevC.02\State=1-A\HF=-613.5236319\RMSD=2.598e-09\RMSF=7.954e-05\
 Dipole=0.556042,-0.9383802,0.4599603\DipoleDeriv=-0.0475059,0.185541,-
 0.0433692,0.1855122,-0.250566,0.0729926,0.0545194,-0.0921454,-0.019665
 4,0.0875905,0.0155042,0.0185972,0.0155452,0.0705217,-0.0313738,-0.0110
 922,0.0187281,-0.030288,-0.0092761,0.0223966,0.0410447,-0.0043041,0.06
 26827,0.0145698,0.037845,0.0429424,0.0660712,0.0537857,-0.0387897,-0.0
 324571,-0.0120725,-0.0003992,-0.0290302,-0.0558568,-0.0125726,0.066049
 3,0.5457573,-0.5828677,-0.1841605,-0.5830814,1.1853659,0.3126767,-0.40
 36723,0.6833515,2.0089625,-0.3351359,0.1211054,-0.080837,0.1212918,-0.
 4680264,0.1354609,0.1205453,-0.2046737,-1.4270036,-0.2952156,0.2771103
 ,0.2811819,0.2771087,-0.5995787,-0.4752961,0.2577116,-0.4356304,-0.664
 126\Polar=32.8250271,-7.9113753,41.5047352,-3.8092152,6.4488192,46.047
 655\PG=C01 [X(C2H3Cl1O1)]\NImag=1\\0.50736423,0.03178217,0.47268342,-0
 .01381647,0.02339653,0.60505350,-0.04717171,0.00003933,0.00446722,0.04
 741527,0.00003980,-0.04722915,-0.00754208,-0.00301697,0.05072424,-0.00
 045001,0.00076383,-0.32934401,-0.00107438,0.00180897,0.35304622,-0.279
 82707,-0.00076189,0.08663442,0.00270311,-0.00049089,-0.00060161,0.3034
 3061,0.00144475,-0.03964737,0.00245121,0.00000753,-0.00102087,-0.00020
 662,-0.00132305,0.04544236,0.08687056,0.00344788,-0.07861137,0.0301732
 2,0.00040767,-0.00731843,-0.09495405,-0.00296988,0.07987258,-0.0947158
 4,-0.09987228,-0.04376047,-0.00036519,0.00169076,0.00047109,-0.0128487
 6,-0.02571480,-0.01106558,0.10378944,-0.10206783,-0.22476648,-0.074844
 74,0.00119139,0.00205109,0.00042985,0.00027251,0.00107535,0.00046222,0
 .10793644,0.24508813,-0.04474876,-0.07457976,-0.07864955,-0.01484220,-
 0.02626796,-0.00731545,0.00490547,0.00992564,0.00357097,0.04820888,0.0
 8190190,0.07990202,-0.10207079,0.04279048,-0.02236508,-0.00244538,-0.0
 0357074,0.00228847,-0.01630001,0.02825661,-0.01240482,0.00753675,-0.01
 214094,0.00900321,0.24414147,0.04278489,-0.14895206,0.03775860,-0.0035
 6682,0.00146463,-0.00386622,0.00090736,-0.00127675,-0.00347399,0.01520
 756,-0.02511274,0.00920789,-0.11129680,0.36589787,-0.01799658,0.030383
 53,-0.08955835,-0.01770629,0.02987807,-0.01209153,0.00389330,-0.007041
 32,0.00240396,0.00430664,-0.00680497,0.00240485,0.12822665,-0.21589159
 ,0.89696353,0.01186730,0.01066195,-0.02237467,0.00024114,0.00450076,-0
 .00157970,0.00303065,-0.00313013,0.00127914,-0.00048890,0.00196528,-0.
 00212402,-0.08575830,0.03715782,-0.09324768,0.05698651,0.01067102,0.00
 020616,0.03772799,0.00449955,-0.00468276,0.00266815,0.00004099,0.00014
 573,0.00172362,-0.00120356,0.00366734,-0.00029327,0.03714070,-0.126285
 53,0.15683520,-0.05140948,0.11314438,-0.01072177,0.01805595,-0.0253970
 9,-0.00156892,0.00264635,0.00087285,0.00037195,-0.00108943,-0.00098253
 ,0.00078077,-0.00084959,-0.00097932,-0.11544778,0.19431786,-0.78488950
 ,0.10479159,-0.17620110,0.88430759,0.00455389,0.01536025,0.01121506,-0
 .00037725,0.00084727,0.00094614,-0.00018852,0.00045908,0.00010153,-0.0
 0290749,0.00284315,-0.00040259,-0.04510374,0.01880599,-0.00747604,0.01
 412160,0.00026079,0.02179416,0.02990152,0.01534520,-0.01229452,-0.0189
 4751,0.00084598,-0.00130718,-0.00159796,0.00135497,-0.00471845,0.00040
 248,0.00195587,-0.00200269,0.00010557,0.01882069,-0.06573542,0.0126410
 8,0.00025381,0.01380468,-0.03688004,-0.03857653,0.07225358,0.00086302,
 -0.00146797,-0.00349312,0.00055135,-0.00093101,0.00215035,-0.00024948,
 -0.00106960,0.00106482,0.00105866,-0.00029467,0.00106648,0.01069936,-0
 .01805255,-0.01523296,0.01325533,-0.02246059,-0.07293201,-0.02617825,0
 .04427640,0.08737645\\0.00009534,-0.00017950,0.00002977,-0.00005174,0.
 00009463,-0.00000846,-0.00002038,0.00002036,0.00000336,-0.00000423,0.0
 0002859,0.00000554,0.00006735,-0.00011496,-0.00017217,-0.00002175,0.00
 004205,0.00004324,-0.00006458,0.00010883,0.00009873\\\@


 ... I FELL INTO A REVERIE ... THE ATOMS WERE GAMBOLING BEFORE MY EYES
 ... I SAW HOW TWO SMALL ONES UNITED TO FORM A PAIR;
 HOW THE LARGER ONES SEIZED TWO OF THE SMALLER ONES;
 HOW STILL LARGER ONES KEPT HOLD OF THREE OR FOUR
 SMALLER ONES ... I SAW HOW THE LARGER ONES FORMED A CHAIN ...
 THIS WAS THE ORIGIN OF THE STRUCTURE THEORY.

                                   -- C.F.KEKULE VON STRADONITZ
 Job cpu time:  0 days  0 hours  7 minutes 17.1 seconds.
 File lengths (MBytes):  RWF=     21 Int=      0 D2E=      0 Chk=     11 Scr=      1
 Normal termination of Gaussian 03 at Sun Apr  7 16:38:32 2013.
783.47user 11.97system 13:17.84elapsed 99%CPU (0avgtext+0avgdata 0maxresident)k
0inputs+0outputs (2major+5405656minor)pagefaults 0swaps
