[Molden Format]
[Atoms] Angs
 C     1  6    -0.000099     0.000000    -1.176322
 C     2  6    -0.000099     0.000000     0.280538
 N     3  7     0.000169     0.000000     1.433171
 H     4  1     0.512485     0.887557    -1.552489
 H     5  1     0.512485    -0.887557    -1.552489
 H     6  1    -1.024966     0.000000    -1.552515
[FREQ]
  381.8739
  381.9225
  929.0312
 1060.8166
 1060.9862
 1411.1541
 1474.6279
 1474.7131
 2362.2852
 3047.5026
 3117.4341
 3117.8663
[INT]
    0.1588
    0.1592
    1.5730
    2.1311
    2.1219
    3.0338
   12.1327
   12.1464
   11.8810
    3.3889
    1.2362
    1.2297
[FR-COORD]
 C    -0.000187     0.000000    -2.222926
 C    -0.000187     0.000000     0.530140
 N     0.000319     0.000000     2.708300
 H     0.968456     1.677240    -2.933779
 H     0.968456    -1.677240    -2.933779
 H    -1.936905     0.000000    -2.933828
[FR-NORM-COORD]
vibration     1
    0.000000     0.000000    -0.080000
    0.000000     0.000000     0.430000
    0.000000     0.000000    -0.240000
    0.500000     0.000000    -0.290000
   -0.500000     0.000000    -0.290000
    0.000000     0.000000    -0.300000
vibration     2
    0.000000    -0.080000     0.000000
    0.000000     0.430000     0.000000
    0.000000    -0.240000     0.000000
   -0.290000    -0.300000     0.000000
   -0.290000    -0.300000     0.000000
    0.570000    -0.290000     0.000000
vibration     3
    0.430000     0.000000     0.000000
   -0.190000     0.000000     0.000000
   -0.300000     0.000000     0.000000
    0.480000     0.010000    -0.010000
    0.480000     0.010000     0.010000
    0.480000    -0.020000     0.000000
vibration     4
    0.000000     0.000000     0.160000
    0.000000     0.000000    -0.120000
    0.000000     0.000000     0.020000
    0.610000    -0.110000    -0.180000
   -0.610000     0.110000    -0.180000
    0.000000     0.000000    -0.370000
vibration     5
    0.000000     0.160000     0.000000
    0.000000    -0.120000     0.000000
    0.000000     0.020000     0.000000
   -0.350000    -0.300000    -0.110000
   -0.350000    -0.300000     0.110000
    0.700000    -0.120000     0.000000
vibration     6
    0.140000     0.000000     0.000000
    0.000000     0.000000     0.000000
   -0.010000     0.000000     0.000000
   -0.520000    -0.120000     0.200000
   -0.520000    -0.120000    -0.200000
   -0.520000     0.230000     0.000000
vibration     7
    0.000000     0.000000    -0.050000
    0.000000     0.000000    -0.020000
    0.000000     0.000000     0.000000
    0.330000     0.380000     0.050000
   -0.330000    -0.380000     0.050000
    0.000000     0.000000     0.700000
vibration     8
    0.000000    -0.050000     0.000000
    0.000000    -0.020000     0.000000
    0.000000     0.000000     0.000000
   -0.190000     0.480000     0.380000
   -0.190000     0.480000    -0.380000
    0.390000    -0.170000     0.000000
vibration     9
   -0.100000     0.000000     0.000000
    0.800000     0.000000     0.000000
   -0.580000     0.000000     0.000000
   -0.060000    -0.010000     0.010000
   -0.060000    -0.010000    -0.010000
   -0.060000     0.010000     0.000000
vibration    10
    0.050000     0.000000     0.000000
    0.000000     0.000000     0.000000
    0.000000     0.000000     0.000000
   -0.190000     0.270000    -0.470000
   -0.190000     0.270000     0.470000
   -0.190000    -0.540000     0.000000
vibration    11
    0.000000     0.000000     0.090000
    0.000000     0.000000     0.000000
    0.000000     0.000000     0.000000
   -0.250000     0.340000    -0.570000
    0.250000    -0.340000    -0.570000
    0.000000     0.000000     0.020000
vibration    12
    0.000000     0.090000     0.000000
    0.000000     0.000000     0.000000
    0.000000     0.000000     0.000000
    0.140000    -0.170000     0.340000
    0.140000    -0.170000    -0.340000
   -0.280000    -0.760000     0.000000
