[Molden Format]
[Atoms] Angs
 C     1  6    -0.150692    -0.174801    -1.381598
 C     2  6    -0.097606     0.003704     0.112614
 O     3  8     1.170007     0.172830     0.567191
 O     4  8    -1.051833     0.002841     0.848706
 H     5  1     0.839566    -0.152255    -1.833078
 H     6  1    -0.770224     0.618131    -1.806222
 H     7  1    -0.639714    -1.125704    -1.603172
 H     8  1     1.114760     0.281044     1.529198
[FREQ]
  -81.4935
  429.8624
  546.5798
  582.9644
  693.0774
  854.0930
 1012.3859
 1068.1336
 1198.1163
 1334.2262
 1402.3278
 1479.6226
 1480.8084
 1814.6151
 3053.6988
 3115.9284
 3150.1312
 3751.2053
[INT]
    1.5211
    4.1731
   31.1201
   39.6535
  109.9092
    5.9215
   54.8193
    6.8722
  266.8326
   34.8428
   46.5206
    8.9513
    6.4216
  373.3291
    1.2286
    3.1894
    7.4363
   60.8294
[FR-COORD]
 C    -0.284767    -0.330326    -2.610842
 C    -0.184449     0.007000     0.212810
 O     2.210993     0.326601     1.071836
 O    -1.987676     0.005369     1.603822
 H     1.586550    -0.287720    -3.464015
 H    -1.455512     1.168098    -3.413265
 H    -1.208884    -2.127272    -3.029556
 H     2.106591     0.531096     2.889765
[FR-NORM-COORD]
vibration     1
    0.000000     0.000000     0.010000
    0.000000     0.000000     0.020000
    0.000000     0.000000    -0.050000
    0.000000     0.000000     0.040000
    0.000000    -0.010000     0.530000
    0.120000     0.490000    -0.310000
   -0.120000    -0.480000    -0.320000
    0.000000     0.000000    -0.090000
vibration     2
   -0.060000    -0.190000     0.000000
    0.000000     0.160000     0.000000
    0.220000     0.020000     0.000000
   -0.170000     0.090000     0.000000
   -0.550000    -0.280000     0.000000
    0.140000    -0.410000     0.010000
    0.160000    -0.420000    -0.010000
    0.140000    -0.240000     0.000000
vibration     3
    0.000000     0.000000    -0.010000
    0.000000     0.000000     0.210000
    0.000000     0.000000     0.000000
    0.000000     0.000000    -0.070000
    0.000000     0.000000    -0.260000
    0.350000    -0.100000    -0.140000
   -0.340000     0.100000    -0.140000
    0.000000     0.000000    -0.770000
vibration     4
    0.270000    -0.050000     0.000000
    0.130000    -0.010000     0.000000
   -0.100000     0.200000     0.000000
   -0.250000    -0.180000     0.000000
    0.150000    -0.080000     0.000000
    0.310000    -0.120000     0.010000
    0.330000    -0.120000    -0.010000
    0.050000     0.710000     0.020000
vibration     5
    0.000000     0.000000    -0.030000
    0.000000     0.000000    -0.160000
    0.000000     0.000000     0.110000
    0.000000     0.000000     0.070000
    0.000000     0.000000     0.100000
   -0.250000     0.040000     0.080000
    0.240000    -0.040000     0.080000
    0.000000     0.000000    -0.900000
vibration     6
    0.310000    -0.010000     0.000000
   -0.100000     0.110000     0.000000
   -0.160000    -0.210000     0.000000
   -0.040000     0.180000     0.000000
    0.160000    -0.040000     0.000000
    0.430000    -0.140000     0.010000
    0.430000    -0.140000    -0.020000
   -0.250000    -0.520000     0.000000
vibration     7
   -0.040000     0.170000     0.000000
    0.090000     0.020000     0.000000
   -0.050000    -0.070000     0.000000
    0.040000    -0.050000     0.000000
   -0.800000     0.020000     0.000000
    0.220000    -0.260000     0.080000
    0.240000    -0.260000    -0.080000
    0.040000     0.230000     0.000000
vibration     8
    0.000000     0.000000     0.170000
    0.000000     0.000000    -0.190000
    0.000000     0.000000     0.030000
    0.000000     0.000000     0.030000
   -0.010000     0.010000    -0.380000
    0.610000    -0.020000    -0.150000
   -0.600000     0.010000    -0.160000
    0.000000     0.000000     0.050000
vibration     9
    0.060000     0.090000     0.000000
   -0.170000    -0.110000     0.000000
    0.030000     0.170000     0.000000
    0.050000    -0.080000     0.000000
   -0.200000     0.020000     0.000000
    0.200000    -0.220000     0.080000
    0.210000    -0.220000    -0.080000
   -0.230000    -0.790000     0.000000
vibration    10
    0.000000    -0.030000     0.000000
    0.210000     0.120000     0.000000
   -0.080000     0.020000     0.000000
   -0.010000    -0.070000     0.000000
   -0.220000    -0.060000     0.000000
   -0.260000     0.220000     0.000000
   -0.260000     0.220000     0.000000
   -0.280000    -0.750000     0.000000
vibration    11
    0.150000     0.000000     0.000000
   -0.060000    -0.040000     0.000000
    0.020000     0.000000     0.000000
    0.000000     0.030000     0.000000
   -0.420000    -0.110000    -0.010000
   -0.530000     0.010000     0.320000
   -0.520000     0.020000    -0.320000
    0.060000     0.150000     0.000000
vibration    12
   -0.010000     0.010000    -0.050000
    0.010000     0.010000    -0.030000
    0.000000     0.000000     0.000000
    0.000000     0.000000     0.000000
    0.100000     0.020000     0.700000
    0.220000    -0.500000     0.110000
   -0.290000     0.310000    -0.020000
   -0.010000    -0.020000     0.000000
vibration    13
   -0.040000     0.050000     0.010000
    0.060000     0.030000     0.010000
   -0.010000    -0.010000     0.000000
   -0.010000     0.000000     0.000000
    0.500000     0.140000    -0.150000
   -0.210000    -0.370000     0.300000
   -0.100000    -0.550000    -0.340000
   -0.030000    -0.070000     0.000000
vibration    14
    0.050000    -0.050000     0.000000
   -0.360000     0.610000     0.000000
    0.030000    -0.050000     0.000000
    0.190000    -0.400000     0.000000
    0.200000    -0.010000     0.000000
   -0.080000     0.010000     0.050000
   -0.080000     0.020000    -0.050000
    0.160000     0.450000     0.000000
vibration    15
   -0.050000     0.000000     0.000000
    0.000000     0.000000     0.000000
    0.000000     0.000000     0.000000
    0.000000     0.000000     0.000000
    0.080000    -0.470000    -0.010000
    0.250000     0.260000     0.520000
    0.250000     0.270000    -0.490000
    0.000000     0.000000     0.000000
vibration    16
    0.000000     0.000000     0.090000
    0.000000     0.000000     0.000000
    0.000000     0.000000     0.000000
    0.000000     0.000000     0.000000
    0.000000    -0.020000     0.020000
   -0.290000    -0.300000    -0.560000
    0.300000     0.320000    -0.560000
    0.000000     0.000000     0.000000
vibration    17
   -0.010000    -0.090000     0.000000
    0.000000     0.000000     0.000000
    0.000000     0.000000     0.000000
    0.000000     0.000000     0.000000
   -0.160000     0.870000     0.010000
    0.130000     0.120000     0.260000
    0.140000     0.140000    -0.280000
    0.000000     0.000000     0.000000
vibration    18
    0.000000     0.000000     0.000000
    0.000000     0.000000     0.000000
    0.060000    -0.020000     0.000000
    0.000000     0.000000     0.000000
    0.000000     0.000000     0.000000
    0.000000     0.000000     0.000000
    0.000000     0.000000     0.000000
   -0.960000     0.260000     0.000000
