[Molden Format]
[Atoms] Angs
 C     1  6     0.352586     0.558751     0.257492
 H     2  1     0.352586     0.558751     1.357890
 H     3  1     1.392193     0.558751    -0.078978
 H     4  1    -0.094645     1.497284    -0.078971
 N     5  7    -0.354945    -0.562542    -0.366246
 H     6  1     0.049741    -1.450568    -0.090416
 H     7  1    -1.330777    -0.578931    -0.090755
[FREQ]
  302.4753
  819.5546
  973.1129
 1056.0635
 1162.5854
 1341.7059
 1459.6286
 1497.7428
 1517.0261
 1668.2271
 2962.4169
 3057.1361
 3093.1758
 3507.5312
 3585.0973
[INT]
   38.6246
  177.3001
    0.1319
   13.0507
    6.3822
    0.0240
    2.2760
    8.0614
    4.9132
   30.6055
  101.0058
   35.0904
   33.0083
    0.4421
    1.6976
[FR-COORD]
 C     0.666291     1.055886     0.486589
 H     0.666291     1.055886     2.566040
 H     2.630863     1.055886    -0.149247
 H    -0.178853     2.829456    -0.149234
 N    -0.670749    -1.063050    -0.692105
 H     0.093997    -2.741176    -0.170861
 H    -2.514804    -1.094021    -0.171502
[FR-NORM-COORD]
vibration     1
    0.000000     0.000000     0.000000
    0.000000     0.310000     0.000000
   -0.080000    -0.200000     0.300000
    0.080000    -0.200000    -0.300000
    0.000000     0.040000     0.000000
    0.040000    -0.250000    -0.500000
   -0.040000    -0.250000     0.500000
vibration     2
    0.030000     0.000000    -0.010000
   -0.230000     0.000000     0.080000
    0.120000    -0.020000     0.110000
    0.120000     0.020000     0.110000
   -0.080000     0.000000    -0.100000
    0.340000     0.100000     0.560000
    0.340000    -0.100000     0.560000
vibration     3
    0.000000    -0.060000     0.000000
    0.000000     0.270000     0.000000
    0.460000     0.150000     0.010000
   -0.460000     0.150000    -0.010000
    0.000000    -0.010000     0.000000
   -0.440000     0.130000    -0.150000
    0.440000     0.130000     0.150000
vibration     4
    0.360000     0.000000     0.070000
    0.610000     0.000000    -0.040000
    0.150000     0.010000    -0.110000
    0.150000    -0.010000    -0.110000
   -0.310000     0.000000    -0.030000
   -0.400000    -0.010000    -0.100000
   -0.390000     0.010000    -0.100000
vibration     5
   -0.050000     0.000000     0.140000
    0.640000     0.000000    -0.110000
   -0.380000     0.080000    -0.280000
   -0.380000    -0.080000    -0.280000
    0.040000     0.000000    -0.090000
    0.110000     0.070000     0.150000
    0.110000    -0.070000     0.150000
vibration     6
    0.000000     0.140000     0.000000
    0.000000    -0.310000     0.000000
   -0.350000    -0.080000     0.090000
    0.350000    -0.080000    -0.090000
    0.000000    -0.100000     0.000000
   -0.520000     0.110000    -0.100000
    0.520000     0.110000     0.100000
vibration     7
   -0.120000     0.000000     0.010000
    0.410000     0.000000    -0.160000
    0.550000     0.300000    -0.010000
    0.550000    -0.300000    -0.010000
   -0.010000     0.000000     0.000000
    0.030000    -0.020000     0.000000
    0.030000     0.020000     0.000000
vibration     8
   -0.030000     0.000000    -0.050000
    0.490000     0.000000    -0.190000
   -0.060000    -0.320000     0.500000
   -0.060000     0.320000     0.500000
    0.000000     0.000000    -0.010000
    0.010000     0.000000     0.010000
    0.010000     0.000000     0.010000
vibration     9
    0.000000    -0.040000     0.000000
    0.000000     0.680000     0.000000
   -0.330000     0.050000    -0.380000
    0.330000     0.050000     0.380000
    0.000000    -0.020000     0.000000
   -0.080000     0.010000    -0.020000
    0.080000     0.010000     0.020000
vibration    10
    0.000000     0.000000    -0.020000
   -0.030000     0.000000    -0.010000
    0.050000     0.010000     0.010000
    0.050000    -0.010000     0.010000
    0.070000     0.000000    -0.020000
   -0.510000     0.410000     0.260000
   -0.510000    -0.410000     0.260000
vibration    11
   -0.030000     0.000000    -0.060000
    0.300000     0.000000     0.910000
    0.060000    -0.150000    -0.110000
    0.060000     0.150000    -0.110000
    0.000000     0.000000     0.000000
    0.000000     0.010000     0.000000
    0.000000    -0.010000     0.000000
vibration    12
    0.030000     0.000000    -0.070000
    0.080000     0.000000     0.220000
   -0.240000     0.560000     0.300000
   -0.250000    -0.560000     0.310000
    0.000000     0.000000     0.000000
    0.010000     0.010000    -0.010000
    0.010000    -0.010000    -0.010000
vibration    13
    0.000000     0.090000     0.000000
    0.000000     0.020000     0.000000
    0.260000    -0.570000    -0.340000
   -0.250000    -0.560000     0.330000
    0.000000     0.000000     0.000000
    0.000000     0.010000    -0.010000
    0.000000     0.010000     0.010000
vibration    14
    0.000000     0.000000     0.000000
    0.000000     0.000000    -0.010000
    0.000000    -0.010000    -0.010000
    0.000000     0.010000    -0.010000
   -0.040000     0.000000     0.040000
    0.280000     0.590000    -0.270000
    0.280000    -0.590000    -0.270000
vibration    15
    0.000000     0.000000     0.000000
    0.000000     0.000000     0.000000
    0.010000    -0.010000    -0.010000
   -0.010000    -0.010000     0.010000
    0.000000     0.080000     0.000000
   -0.290000    -0.570000     0.310000
    0.290000    -0.570000    -0.310000
