 Entering Gaussian System, Link 0=/usr/local/g03/g03
 Initial command:
 /usr/local/g03/l1.exe /home/chaquin/ENSEIGNEMENT/Gau-12788.inp -scrdir=/home/chaquin/ENSEIGNEMENT/
 Entering Link 1 = /usr/local/g03/l1.exe PID=     12794.
  
 Copyright (c) 1988,1990,1992,1993,1995,1998,2003,2004, Gaussian, Inc.
                  All Rights Reserved.
  
 This is the Gaussian(R) 03 program.  It is based on the
 the Gaussian(R) 98 system (copyright 1998, Gaussian, Inc.),
 the Gaussian(R) 94 system (copyright 1995, Gaussian, Inc.),
 the Gaussian 92(TM) system (copyright 1992, Gaussian, Inc.),
 the Gaussian 90(TM) system (copyright 1990, Gaussian, Inc.),
 the Gaussian 88(TM) system (copyright 1988, Gaussian, Inc.),
 the Gaussian 86(TM) system (copyright 1986, Carnegie Mellon
 University), and the Gaussian 82(TM) system (copyright 1983,
 Carnegie Mellon University). Gaussian is a federally registered
 trademark of Gaussian, Inc.
  
 This software contains proprietary and confidential information,
 including trade secrets, belonging to Gaussian, Inc.
  
 This software is provided under written license and may be
 used, copied, transmitted, or stored only in accord with that
 written license.
  
 The following legend is applicable only to US Government
 contracts under FAR:
  
                    RESTRICTED RIGHTS LEGEND
  
 Use, reproduction and disclosure by the US Government is
 subject to restrictions as set forth in subparagraphs (a)
 and (c) of the Commercial Computer Software - Restricted
 Rights clause in FAR 52.227-19.
  
 Gaussian, Inc.
 340 Quinnipiac St., Bldg. 40, Wallingford CT 06492
  
  
 ---------------------------------------------------------------
 Warning -- This program may not be used in any manner that
 competes with the business of Gaussian, Inc. or will provide
 assistance to any competitor of Gaussian, Inc.  The licensee
 of this program is prohibited from giving any competitor of
 Gaussian, Inc. access to this program.  By using this program,
 the user acknowledges that Gaussian, Inc. is engaged in the
 business of creating and licensing software in the field of
 computational chemistry and represents and warrants to the
 licensee that it is not a competitor of Gaussian, Inc. and that
 it will not use this program in any manner prohibited above.
 ---------------------------------------------------------------
  

 Cite this work as:
 Gaussian 03, Revision C.02,
 M. J. Frisch, G. W. Trucks, H. B. Schlegel, G. E. Scuseria, 
 M. A. Robb, J. R. Cheeseman, J. A. Montgomery, Jr., T. Vreven, 
 K. N. Kudin, J. C. Burant, J. M. Millam, S. S. Iyengar, J. Tomasi, 
 V. Barone, B. Mennucci, M. Cossi, G. Scalmani, N. Rega, 
 G. A. Petersson, H. Nakatsuji, M. Hada, M. Ehara, K. Toyota, 
 R. Fukuda, J. Hasegawa, M. Ishida, T. Nakajima, Y. Honda, O. Kitao, 
 H. Nakai, M. Klene, X. Li, J. E. Knox, H. P. Hratchian, J. B. Cross, 
 C. Adamo, J. Jaramillo, R. Gomperts, R. E. Stratmann, O. Yazyev, 
 A. J. Austin, R. Cammi, C. Pomelli, J. W. Ochterski, P. Y. Ayala, 
 K. Morokuma, G. A. Voth, P. Salvador, J. J. Dannenberg, 
 V. G. Zakrzewski, S. Dapprich, A. D. Daniels, M. C. Strain, 
 O. Farkas, D. K. Malick, A. D. Rabuck, K. Raghavachari, 
 J. B. Foresman, J. V. Ortiz, Q. Cui, A. G. Baboul, S. Clifford, 
 J. Cioslowski, B. B. Stefanov, G. Liu, A. Liashenko, P. Piskorz, 
 I. Komaromi, R. L. Martin, D. J. Fox, T. Keith, M. A. Al-Laham, 
 C. Y. Peng, A. Nanayakkara, M. Challacombe, P. M. W. Gill, 
 B. Johnson, W. Chen, M. W. Wong, C. Gonzalez, and J. A. Pople, 
 Gaussian, Inc., Wallingford CT, 2004.
 
 ******************************************
 Gaussian 03:  AM64L-G03RevC.02 12-Jun-2004
                20-Mar-2012 
 ******************************************
 %chk=geom
 ----------------------------------------------------
 # B3LYP 6-311+G** geom=checkpoint freq pop=none test
 ----------------------------------------------------
 1/10=4,29=2,30=1,38=1/1,3;
 2/40=1/2;
 3/5=4,6=6,7=111,11=2,16=1,25=1,30=1,74=-5/1,2,3;
 4//1;
 5/5=2,38=5/2;
 8/6=4,10=90,11=11/1;
 11/6=1,8=1,9=11,15=111,16=1/1,2,10;
 10/6=1/2;
 7/8=1,10=1,25=1/1,2,3,16;
 1/10=4,30=1/3;
 99//99;
 -----------------------------
 *** Vibrations CH3OH **** 0 1
 -----------------------------
 Z-Matrix taken from the checkpoint file:
 geom.chk
 Charge =  0 Multiplicity = 1
 H
 O,1,oh2
 C,2,co3,1,coh3
 H,3,hc4,2,hco4,1,dih4,0
 H,3,hc5,2,hco5,1,dih5,0
 H,3,hc5,2,hco5,1,dih6,0
      Variables:
 oh2=0.96131827
 co3=1.42358799
 coh3=108.87565704
 hc4=1.09025247
 hco4=106.73568948
 dih4=180.
 hc5=1.0970255
 hco5=112.11558045
 dih5=-61.46634579
 dih6=61.46634579
 Recover connectivity data from disk.

 GradGradGradGradGradGradGradGradGradGradGradGradGradGradGradGradGradGrad
 Berny optimization.
 Initialization pass.
                       ----------------------------
                       !    Initial Parameters    !
                       ! (Angstroms and Degrees)  !
 ----------------------                            ----------------------
 !      Name          Value   Derivative information (Atomic Units)     !
 ------------------------------------------------------------------------
 !       oh2         0.9613   calculate D2E/DX2 analytically            !
 !       co3         1.4236   calculate D2E/DX2 analytically            !
 !      coh3       108.8757   calculate D2E/DX2 analytically            !
 !       hc4         1.0903   calculate D2E/DX2 analytically            !
 !      hco4       106.7357   calculate D2E/DX2 analytically            !
 !      dih4       180.0      calculate D2E/DX2 analytically            !
 !       hc5         1.097    calculate D2E/DX2 analytically            !
 !      hco5       112.1156   calculate D2E/DX2 analytically            !
 !      dih5       -61.4663   calculate D2E/DX2 analytically            !
 !      dih6        61.4663   calculate D2E/DX2 analytically            !
 ------------------------------------------------------------------------
 Trust Radius=3.00D-01 FncErr=1.00D-07 GrdErr=1.00D-07
 Number of steps in this run=   2 maximum allowed number of steps=   2.
 GradGradGradGradGradGradGradGradGradGradGradGradGradGradGradGradGradGrad

                          Input orientation:                          
 ---------------------------------------------------------------------
 Center     Atomic     Atomic              Coordinates (Angstroms)
 Number     Number      Type              X           Y           Z
 ---------------------------------------------------------------------
    1          1             0       -0.732126    0.000000   -1.162521
    2          8             0       -0.732126    0.000000   -0.201203
    3          6             0        0.614905    0.000000    0.259350
    4          1             0        0.574194    0.000000    1.348842
    5          1             0        1.162755   -0.892868   -0.066397
    6          1             0        1.162755    0.892868   -0.066397
 ---------------------------------------------------------------------
                    Distance matrix (angstroms):
                    1          2          3          4          5
     1  H    0.000000
     2  O    0.961318   0.000000
     3  C    1.958625   1.423588   0.000000
     4  H    2.830798   2.027095   1.090252   0.000000
     5  H    2.364165   2.099039   1.097026   1.773843   0.000000
     6  H    2.364165   2.099039   1.097026   1.773843   1.785737
                    6
     6  H    0.000000
 Stoichiometry    CH4O
 Framework group  CS[SG(CH2O),X(H2)]
 Deg. of freedom     8
 Full point group                 CS      NOp   2
 Largest Abelian subgroup         CS      NOp   2
 Largest concise Abelian subgroup CS      NOp   2
                         Standard orientation:                         
 ---------------------------------------------------------------------
 Center     Atomic     Atomic              Coordinates (Angstroms)
 Number     Number      Type              X           Y           Z
 ---------------------------------------------------------------------
    1          1             0        0.863150   -1.068848    0.000000
    2          8             0       -0.046471   -0.757847    0.000000
    3          6             0       -0.046471    0.665741    0.000000
    4          1             0       -1.090544    0.979687    0.000000
    5          1             0        0.438996    1.078745    0.892868
    6          1             0        0.438996    1.078745   -0.892868
 ---------------------------------------------------------------------
 Rotational constants (GHZ):    128.1697269     24.6594762     23.8121831
 Standard basis: 6-311+G(d,p) (5D, 7F)
 There are    48 symmetry adapted basis functions of A'  symmetry.
 There are    20 symmetry adapted basis functions of A"  symmetry.
 Integral buffers will be    131072 words long.
 Raffenetti 2 integral format.
 Two-electron integral symmetry is turned on.
    68 basis functions,   104 primitive gaussians,    70 cartesian basis functions
     9 alpha electrons        9 beta electrons
       nuclear repulsion energy        40.2178199797 Hartrees.
 NAtoms=    6 NActive=    6 NUniq=    5 SFac= 1.58D+00 NAtFMM=   60 Big=F
 One-electron integrals computed using PRISM.
 NBasis=    68 RedAO= T  NBF=    48    20
 NBsUse=    68 1.00D-06 NBFU=    48    20
 Harris functional with IExCor=  402 diagonalized for initial guess.
 ExpMin= 4.38D-02 ExpMax= 8.59D+03 ExpMxC= 1.30D+03 IAcc=2 IRadAn=         4 AccDes= 0.00D+00
 HarFok:  IExCor= 402 AccDes= 0.00D+00 IRadAn=         4 IDoV=1
 ScaDFX=  1.000000  1.000000  1.000000  1.000000
 Initial guess orbital symmetries:
       Occupied  (A') (A') (A') (A') (A') (A") (A') (A') (A")
       Virtual   (A') (A') (A') (A") (A') (A') (A") (A') (A') (A")
                 (A') (A') (A') (A') (A") (A') (A') (A") (A') (A')
                 (A') (A') (A") (A') (A") (A') (A") (A') (A") (A')
                 (A") (A') (A') (A") (A') (A') (A') (A") (A') (A')
                 (A') (A") (A') (A") (A') (A') (A') (A") (A") (A')
                 (A') (A") (A') (A') (A") (A') (A') (A') (A')
 The electronic state of the initial guess is 1-A'.
 Requested convergence on RMS density matrix=1.00D-08 within 128 cycles.
 Requested convergence on MAX density matrix=1.00D-06.
 Requested convergence on             energy=1.00D-06.
 No special actions if energy rises.
 Keep R1 integrals in memory in canonical form, NReq=     4174017.
 SCF Done:  E(RB+HF-LYP) =  -115.764943581     A.U. after   10 cycles
             Convg  =    0.1571D-08             -V/T =  2.0038
             S**2   =   0.0000
 Range of M.O.s used for correlation:     1    68
 NBasis=    68 NAE=     9 NBE=     9 NFC=     0 NFV=     0
 NROrb=     68 NOA=     9 NOB=     9 NVA=    59 NVB=    59
 Symmetrizing basis deriv contribution to polar:
 IMax=3 JMax=2 DiffMx= 0.00D+00
 G2DrvN: will do    7 centers at a time, making    1 passes doing MaxLOS=2.
 FoFDir/FoFCou used for L=0 through L=2.
 DoAtom=TTTTTT
          Differentiating once with respect to electric field.
                with respect to dipole field.
          Differentiating once with respect to nuclear coordinates.
          Store integrals in memory, NReq=     3909591.
          There are  18 degrees of freedom in the 1st order CPHF.
    18 vectors were produced by pass  0.
 AX will form  18 AO Fock derivatives at one time.
    18 vectors were produced by pass  1.
    18 vectors were produced by pass  2.
    18 vectors were produced by pass  3.
    18 vectors were produced by pass  4.
     8 vectors were produced by pass  5.
     3 vectors were produced by pass  6.
 Inv2:  IOpt= 1 Iter= 1 AM= 1.52D-15 Conv= 1.00D-12.
 Inverted reduced A of dimension  101 with in-core refinement.
 Isotropic polarizability for W=    0.000000       18.70 Bohr**3.
 End of Minotr Frequency-dependent properties file   721 does not exist.
 Full mass-weighted force constant matrix:
 Low frequencies ---  -17.8268   -4.3235   -0.0014   -0.0012   -0.0008    0.5493
 Low frequencies ---  297.4410 1043.2523 1070.7510
 Diagonal vibrational polarizability:
        0.1913372       3.7735117      41.5922170
 Harmonic frequencies (cm**-1), IR intensities (KM/Mole), Raman scattering
 activities (A**4/AMU), depolarization ratios for plane and unpolarized
 incident light, reduced masses (AMU), force constants (mDyne/A),
 and normal coordinates:
                     1                      2                      3
                    A"                     A'                     A'
 Frequencies --   297.4309              1043.2523              1070.7510
 Red. masses --     1.0718                 3.3049                 1.3290
 Frc consts  --     0.0559                 2.1193                 0.8977
 IR Inten    --   135.9585               128.7338                 0.6418
 Atom AN      X      Y      Z        X      Y      Z        X      Y      Z
   1   1     0.00   0.00   0.89    -0.28  -0.47   0.00     0.19   0.62   0.00
   2   8     0.00   0.00  -0.07     0.00   0.29   0.00     0.01   0.07   0.00
   3   6     0.00   0.00   0.01     0.06  -0.30   0.00    -0.07  -0.13   0.00
   4   1     0.00   0.00   0.29    -0.06  -0.66   0.00     0.11   0.46   0.00
   5   1     0.22  -0.03  -0.10    -0.20   0.02   0.02     0.22  -0.34  -0.05
   6   1    -0.22   0.03  -0.10    -0.20   0.02  -0.02     0.22  -0.34   0.05
                     4                      5                      6
                    A"                     A'                     A'
 Frequencies --  1168.6327              1356.0362              1480.3416
 Red. masses --     1.2678                 1.2977                 1.1304
 Frc consts  --     1.0201                 1.4059                 1.4595
 IR Inten    --     0.2110                20.9420                 5.0677
 Atom AN      X      Y      Z        X      Y      Z        X      Y      Z
   1   1     0.00   0.00   0.01     0.20   0.77   0.00     0.00   0.04   0.00
   2   8     0.00   0.00   0.06    -0.08  -0.03   0.00    -0.01   0.02   0.00
   3   6     0.00   0.00  -0.14     0.13  -0.02   0.00    -0.02   0.10   0.00
   4   1     0.00   0.00   0.28     0.01  -0.42   0.00    -0.22  -0.63   0.00
   5   1    -0.06  -0.64   0.19    -0.22   0.16   0.11     0.25  -0.45   0.09
   6   1     0.06   0.64   0.19    -0.22   0.16  -0.11     0.25  -0.45  -0.09
                     7                      8                      9
                    A"                     A'                     A'
 Frequencies --  1495.1691              1506.2768              2989.3408
 Red. masses --     1.0465                 1.0440                 1.0361
 Frc consts  --     1.3784                 1.3956                 5.4551
 IR Inten    --     3.5919                 5.1481                68.2925
 Atom AN      X      Y      Z        X      Y      Z        X      Y      Z
   1   1     0.00   0.00  -0.01    -0.02  -0.10   0.00     0.00   0.00   0.00
   2   8     0.00   0.00  -0.01     0.02   0.01   0.00     0.00   0.00   0.00
   3   6     0.00   0.00  -0.06     0.04   0.03   0.00    -0.03  -0.04   0.00
   4   1     0.00   0.00   0.72     0.09   0.27   0.00    -0.26   0.07   0.00
   5   1    -0.39   0.28   0.06    -0.43  -0.34   0.40     0.30   0.24   0.56
   6   1     0.39  -0.28   0.06    -0.43  -0.34  -0.40     0.30   0.24  -0.56
                    10                     11                     12
                    A"                     A'                     A'
 Frequencies --  3036.3639              3112.3292              3846.8612
 Red. masses --     1.1056                 1.0969                 1.0668
 Frc consts  --     6.0057                 6.2604                 9.3017
 IR Inten    --    63.7474                27.3879                30.3408
 Atom AN      X      Y      Z        X      Y      Z        X      Y      Z
   1   1     0.00   0.00   0.00     0.02   0.00   0.00     0.94  -0.33   0.00
   2   8     0.00   0.00   0.00     0.00   0.00   0.00    -0.06   0.02   0.00
   3   6     0.00   0.00   0.09     0.09  -0.01   0.00     0.00   0.00   0.00
   4   1     0.00   0.00   0.03    -0.93   0.27   0.00     0.01   0.00   0.00
   5   1    -0.33  -0.25  -0.57    -0.06  -0.06  -0.15     0.00   0.00   0.00
   6   1     0.33   0.25  -0.57    -0.06  -0.06   0.15     0.00   0.00   0.00

 -------------------
 - Thermochemistry -
 -------------------
 Temperature   298.150 Kelvin.  Pressure   1.00000 Atm.
 Atom  1 has atomic number  1 and mass   1.00783
 Atom  2 has atomic number  8 and mass  15.99491
 Atom  3 has atomic number  6 and mass  12.00000
 Atom  4 has atomic number  1 and mass   1.00783
 Atom  5 has atomic number  1 and mass   1.00783
 Atom  6 has atomic number  1 and mass   1.00783
 Molecular mass:    32.02621 amu.
 Principal axes and moments of inertia in atomic units:
                           1         2         3
     EIGENVALUES --    14.08087  73.18652  75.79067
           X           -0.05453   0.99851   0.00000
           Y            0.99851   0.05453   0.00000
           Z            0.00000   0.00000   1.00000
 This molecule is an asymmetric top.
 Rotational symmetry number  1.
 Rotational temperatures (Kelvin)      6.15117     1.18347     1.14280
 Rotational constants (GHZ):         128.16973    24.65948    23.81218
 Zero-point vibrational energy     133998.4 (Joules/Mol)
                                   32.02639 (Kcal/Mol)
 Warning -- explicit consideration of   1 degrees of freedom as
           vibrations may cause significant error
 Vibrational temperatures:    427.94  1501.01  1540.57  1681.40  1951.03
          (Kelvin)           2129.88  2151.21  2167.19  4300.99  4368.65
                             4477.94  5534.77
 
 Zero-point correction=                           0.051037 (Hartree/Particle)
 Thermal correction to Energy=                    0.054395
 Thermal correction to Enthalpy=                  0.055340
 Thermal correction to Gibbs Free Energy=         0.028254
 Sum of electronic and zero-point Energies=           -115.713906
 Sum of electronic and thermal Energies=              -115.710548
 Sum of electronic and thermal Enthalpies=            -115.709604
 Sum of electronic and thermal Free Energies=         -115.736689
 
                     E (Thermal)             CV                S
                      KCal/Mol        Cal/Mol-Kelvin    Cal/Mol-Kelvin
 Total                   34.134              8.858             57.006
 Electronic               0.000              0.000              0.000
 Translational            0.889              2.981             36.324
 Rotational               0.889              2.981             18.997
 Vibrational             32.356              2.896              1.685
 Vibration  1             0.691              1.679              1.431
                       Q            Log10(Q)             Ln(Q)
 Total Bot       0.100913D-12        -12.996055        -29.924522
 Total V=0       0.301596D+11         10.479425         24.129768
 Vib (Bot)       0.447762D-23        -23.348953        -53.762950
 Vib (Bot)  1    0.640320D+00         -0.193603         -0.445788
 Vib (V=0)       0.133822D+01          0.126527          0.291339
 Vib (V=0)  1    0.131241D+01          0.118069          0.271865
 Electronic      0.100000D+01          0.000000          0.000000
 Translational   0.712383D+07          6.852714         15.778956
 Rotational      0.316362D+04          3.500185          8.059473
 ***** Axes restored to original set *****
 -------------------------------------------------------------------
 Center     Atomic                   Forces (Hartrees/Bohr)
 Number     Number              X              Y              Z
 -------------------------------------------------------------------
    1          1           0.000066667    0.000000000    0.000019005
    2          8          -0.000153307    0.000000000    0.000015711
    3          6           0.000184263    0.000000000   -0.000008839
    4          1          -0.000054286    0.000000000   -0.000022654
    5          1          -0.000021669    0.000007690   -0.000001612
    6          1          -0.000021669   -0.000007690   -0.000001612
 -------------------------------------------------------------------
 Cartesian Forces:  Max     0.000184263 RMS     0.000061060
 ------------------------------------------------------------------------
           Internal Coordinate Forces (Hartree/Bohr or radian)
 Cent Atom N1     Length/X     N2     Alpha/Y      N3      Beta/Z       J
 ------------------------------------------------------------------------
   1  H 
   2  O     1  -0.000019(   1)
   3  C     2   0.000071(   2)  1  -0.000080(   6)
   4  H     3  -0.000021(   3)  2  -0.000114(   7)  1   0.000000(  10)  0
   5  H     3  -0.000017(   4)  2  -0.000033(   8)  1  -0.000002(  11)  0
   6  H     3  -0.000017(   5)  2  -0.000033(   9)  1   0.000002(  12)  0
 ------------------------------------------------------------------------
 Internal  Forces:  Max     0.000113509 RMS     0.000048190

 GradGradGradGradGradGradGradGradGradGradGradGradGradGradGradGradGradGrad
 Berny optimization.
 Search for a local minimum.
 Step number   1 out of a maximum of   2
 All quantities printed in internal units (Hartrees-Bohrs-Radians)
 Second derivative matrix not updated -- analytic derivatives used.
 The second derivative matrix:
                          oh2       co3      coh3       hc4      hco4
           oh2          0.53134
           co3         -0.00287   0.34050
           coh3         0.01350   0.04652   0.17437
           hc4         -0.00187   0.01148   0.00314   0.34138
           hco4         0.00710   0.05934   0.02612  -0.00379   0.25693
           dih4         0.00000   0.00000   0.00000   0.00000   0.00000
           hc5         -0.00022   0.03343   0.00074   0.00724  -0.01202
           hco5        -0.00805   0.11115  -0.00646  -0.01027   0.05716
           dih5         0.00069  -0.00256  -0.00234   0.01522  -0.04750
           dih6        -0.00069   0.00256   0.00234  -0.01522   0.04750
                         dih4       hc5      hco5      dih5      dih6
           dih4         0.18174
           hc5          0.00000   0.65473
           hco5         0.00000  -0.03528   0.59426
           dih5        -0.09029  -0.01634   0.04993   0.17339
           dih6        -0.09029   0.01634  -0.04993  -0.07992   0.17339
     Eigenvalues ---    0.00250   0.15016   0.17247   0.26087   0.27270
     Eigenvalues ---    0.34770   0.36432   0.53188   0.63459   0.68483
 Angle between quadratic step and forces=  18.48 degrees.
 Linear search not attempted -- first point.
 Variable       Old X    -DE/DX   Delta X   Delta X   Delta X     New X
                                 (Linear)    (Quad)   (Total)
   oh2        1.81663  -0.00002   0.00000  -0.00002  -0.00002   1.81661
   co3        2.69019   0.00007   0.00000   0.00042   0.00042   2.69061
   coh3       1.90024  -0.00008   0.00000  -0.00050  -0.00050   1.89974
   hc4        2.06028  -0.00002   0.00000  -0.00007  -0.00007   2.06021
   hco4       1.86289  -0.00011   0.00000  -0.00049  -0.00049   1.86240
   dih4       3.14159   0.00000   0.00000   0.00000   0.00000   3.14159
   hc5        2.07308  -0.00003   0.00000  -0.00009  -0.00009   2.07299
   hco5       1.95679  -0.00007   0.00000  -0.00014  -0.00014   1.95664
   dih5      -1.07279   0.00000   0.00000  -0.00007  -0.00007  -1.07286
   dih6       1.07279   0.00000   0.00000   0.00007   0.00007   1.07286
         Item               Value     Threshold  Converged?
 Maximum Force            0.000114     0.000450     YES
 RMS     Force            0.000055     0.000300     YES
 Maximum Displacement     0.000503     0.001800     YES
 RMS     Displacement     0.000267     0.001200     YES
 Predicted change in Energy=-6.994492D-08
 Optimization completed.
    -- Stationary point found.
                       ----------------------------
                       !   Optimized Parameters   !
                       ! (Angstroms and Degrees)  !
 ----------------------                            ----------------------
 !      Name          Value   Derivative information (Atomic Units)     !
 ------------------------------------------------------------------------
 !       oh2         0.9613   -DE/DX =    0.0                           !
 !       co3         1.4236   -DE/DX =    0.0001                        !
 !      coh3       108.8757   -DE/DX =   -0.0001                        !
 !       hc4         1.0903   -DE/DX =    0.0                           !
 !      hco4       106.7357   -DE/DX =   -0.0001                        !
 !      dih4       180.0      -DE/DX =    0.0                           !
 !       hc5         1.097    -DE/DX =    0.0                           !
 !      hco5       112.1156   -DE/DX =   -0.0001                        !
 !      dih5       -61.4663   -DE/DX =    0.0                           !
 !      dih6        61.4663   -DE/DX =    0.0                           !
 ------------------------------------------------------------------------
 GradGradGradGradGradGradGradGradGradGradGradGradGradGradGradGradGradGrad


 Test job not archived.
 1\1\GINC-CLUSTER-BIO\Freq\RB3LYP\6-311+G(d,p)\C1H4O1\CHAQUIN\20-Mar-20
 12\1\\# B3LYP 6-311+G** GEOM=CHECKPOINT FREQ POP=NONE TEST\\*** Vibrat
 ions CH3OH **** 0 1\\0,1\H\O,1,oh2\C,2,co3,1,coh3\H,3,hc4,2,hco4,1,dih
 4,0\H,3,hc5,2,hco5,1,dih5,0\H,3,hc5,2,hco5,1,dih6,0\\oh2=0.96131827\co
 3=1.42358799\coh3=108.87565704\hc4=1.09025247\hco4=106.73568948\dih4=1
 80.\hc5=1.0970255\hco5=112.11558045\dih5=-61.46634579\dih6=61.46634579
 \\Version=AM64L-G03RevC.02\State=1-A'\HF=-115.7649436\RMSD=1.571e-09\R
 MSF=6.106e-05\Dipole=0.611524,0.,-0.4227569\DipoleDeriv=0.2319348,0.,0
 .0666749,0.,0.3790897,0.,0.032028,0.,0.1502313,-0.864486,0.,-0.2280138
 ,0.,-0.6011792,0.,-0.2961331,0.,-0.3986188,0.7974963,0.,0.1633206,0.,0
 .3839419,0.,0.2303206,0.,0.3266715,0.0325198,0.,0.0269145,0.,0.0792997
 ,0.,-0.0298729,0.,-0.1374791,-0.0987325,0.0895392,-0.0144481,0.1330346
 ,-0.120576,-0.0553061,0.0318287,-0.0708492,0.0295975,-0.0987325,-0.089
 5392,-0.0144481,-0.1330346,-0.120576,0.0553061,0.0318287,0.0708492,0.0
 295975\Polar=19.6633928,0.,17.6315211,1.1446576,0.,18.815643\PG=CS [SG
 (C1H2O1),X(H2)]\NImag=0\\0.05278230,0.,0.00249245,0.00746197,0.,0.5313
 4124,-0.04199193,0.,-0.01317881,0.33214604,0.,-0.00224478,0.,0.,0.0431
 0980,0.03982712,0.,-0.52349982,0.06266798,0.,0.62842029,-0.00537878,0.
 ,0.00614344,-0.21585927,0.,-0.06350906,0.46465812,0.,-0.00107800,0.,0.
 ,-0.05911643,0.,0.,0.55349596,-0.04500777,0.,-0.01194076,-0.01875305,0
 .,-0.10457286,-0.03670369,0.,0.58786605,-0.00692741,0.,-0.00351252,-0.
 00702998,0.,-0.04330489,-0.04817545,0.,0.03053798,0.06107017,0.,0.0003
 0661,0.,0.,0.00171526,0.,0.,-0.05044192,0.,0.,0.04668892,-0.00201755,0
 .,0.00174270,-0.00755486,0.,-0.01253132,0.01780824,0.,-0.31346567,-0.0
 1234100,0.,0.34084875,0.00075792,0.00001373,0.00154296,-0.03363243,0.0
 2583005,0.00215943,-0.09762231,0.08924461,0.03496326,0.00053134,0.0020
 7555,0.00205258,0.12047107,0.00080140,0.00026186,0.00037964,0.00318507
 ,0.00826807,0.00456520,0.09189092,-0.22142981,-0.06642347,-0.00114623,
 0.00086557,-0.00002239,-0.10594755,0.23364345,-0.00013189,0.00133985,0
 .00117832,-0.01159063,0.01124324,0.00609186,0.03813054,-0.06614469,-0.
 07894338,0.01431021,-0.02745581,-0.00829723,-0.03636462,0.07125921,0.0
 7545801,0.00075792,-0.00001373,0.00154296,-0.03363243,-0.02583005,0.00
 215943,-0.09762231,-0.08924461,0.03496326,0.00053134,-0.00207555,0.002
 05258,0.00949442,0.01121639,-0.00435361,0.12047107,-0.00080140,0.00026
 186,-0.00037964,-0.00318507,0.00826807,-0.00456520,-0.09189092,-0.2214
 2981,0.06642347,0.00114623,0.00086557,0.00002239,-0.01121639,-0.021609
 14,0.00975820,0.10594755,0.23364345,-0.00013189,-0.00133985,0.00117832
 ,-0.01159063,-0.01124324,0.00609186,0.03813054,0.06614469,-0.07894338,
 0.01431021,0.02745581,-0.00829723,-0.00435361,-0.00975820,0.00451242,-
 0.03636462,-0.07125921,0.07545801\\-0.00006667,0.,-0.00001900,0.000153
 31,0.,-0.00001571,-0.00018426,0.,0.00000884,0.00005429,0.,0.00002265,0
 .00002167,-0.00000769,0.00000161,0.00002167,0.00000769,0.00000161\\\@


 BE LIKE A POSTAGE STAMP.  STICK TO ONE THING UNTIL
 YOU GET THERE -- JOSH BILLINGS
 Job cpu time:  0 days  0 hours  1 minutes 24.1 seconds.
 File lengths (MBytes):  RWF=     14 Int=      0 D2E=      0 Chk=     15 Scr=      1
 Normal termination of Gaussian 03 at Tue Mar 20 15:52:51 2012.
123.78user 4.91system 2:08.81elapsed 99%CPU (0avgtext+0avgdata 0maxresident)k
0inputs+0outputs (5major+1874193minor)pagefaults 0swaps
