[Molden Format]
[Atoms] Angs
 H     1  1     0.000000     0.000000     0.000000
 O     2  8     0.000000     0.000000     0.961318
 C     3  6     1.347032     0.000000     1.421871
 H     4  1     1.306321     0.000000     2.511363
 H     5  1     1.894882    -0.892868     1.096124
 H     6  1     1.894882     0.892868     1.096124
[FREQ]
  236.6482
  859.7120
 1047.0755
 1168.5957
 1242.5101
 1480.0500
 1495.1264
 1504.4572
 2800.8460
 2989.3966
 3036.3623
 3112.6906
[INT]
   68.5380
   32.2774
   88.7031
    0.2782
    0.9173
    4.1513
    3.8401
    6.4076
   22.0399
   67.5247
   64.0053
   25.5241
[FR-COORD]
 H     0.000000     0.000000     0.000000
 O     0.000000     0.000000     1.816628
 C     2.545521     0.000000     2.686947
 H     2.468589     0.000000     4.745788
 H     3.580808    -1.687276     2.071374
 H     3.580808     1.687276     2.071374
[FR-NORM-COORD]
vibration     1
    0.000000     0.000000     0.690000
    0.000000     0.000000    -0.100000
    0.000000     0.000000     0.010000
    0.000000     0.000000     0.450000
    0.350000    -0.060000    -0.160000
   -0.350000     0.060000    -0.160000
vibration     2
    0.230000     0.770000     0.000000
   -0.060000    -0.060000     0.000000
    0.000000    -0.040000     0.000000
    0.130000     0.370000     0.000000
    0.200000    -0.230000    -0.020000
    0.200000    -0.230000     0.020000
vibration     3
   -0.140000     0.150000     0.000000
    0.000000     0.470000     0.000000
    0.020000    -0.550000     0.000000
    0.040000    -0.430000     0.000000
   -0.040000    -0.350000    -0.020000
   -0.040000    -0.350000     0.020000
vibration     4
    0.000000     0.000000     0.010000
    0.000000     0.000000     0.060000
    0.000000     0.000000    -0.140000
    0.000000     0.000000     0.280000
   -0.060000    -0.640000     0.190000
    0.060000     0.640000     0.190000
vibration     5
   -0.020000    -0.270000     0.000000
    0.080000     0.030000     0.000000
   -0.160000     0.000000     0.000000
    0.050000     0.710000     0.000000
    0.290000    -0.310000    -0.100000
    0.290000    -0.310000     0.100000
vibration     6
   -0.010000     0.010000     0.000000
    0.000000     0.020000     0.000000
   -0.020000     0.100000     0.000000
   -0.220000    -0.620000     0.000000
    0.270000    -0.450000     0.080000
    0.270000    -0.450000    -0.080000
vibration     7
    0.000000     0.000000    -0.010000
    0.000000     0.000000    -0.010000
    0.000000     0.000000    -0.060000
    0.000000     0.000000     0.720000
   -0.390000     0.280000     0.060000
    0.390000    -0.280000     0.060000
vibration     8
    0.000000    -0.020000     0.000000
    0.010000     0.010000     0.000000
    0.050000     0.030000     0.000000
    0.090000     0.230000     0.000000
   -0.430000    -0.340000     0.410000
   -0.430000    -0.340000    -0.410000
vibration     9
    0.940000    -0.320000     0.000000
   -0.120000     0.050000     0.000000
    0.000000    -0.010000     0.000000
   -0.040000     0.000000     0.000000
    0.010000     0.000000     0.010000
    0.010000     0.000000    -0.010000
vibration    10
   -0.010000     0.000000     0.000000
    0.000000     0.000000     0.000000
   -0.030000    -0.040000     0.000000
   -0.260000     0.070000     0.000000
    0.300000     0.240000     0.560000
    0.300000     0.240000    -0.560000
vibration    11
    0.000000     0.000000     0.000000
    0.000000     0.000000     0.000000
    0.000000     0.000000     0.090000
    0.000000     0.000000     0.030000
   -0.330000    -0.250000    -0.570000
    0.330000     0.250000    -0.570000
vibration    12
   -0.020000     0.010000     0.000000
    0.000000     0.000000     0.000000
    0.090000    -0.010000     0.000000
   -0.930000     0.270000     0.000000
   -0.060000    -0.060000    -0.150000
   -0.060000    -0.060000     0.150000
