[Molden Format]
[Atoms] Angs
 H     1  1    -0.732126     0.000000    -1.162521
 O     2  8    -0.732126     0.000000    -0.201203
 C     3  6     0.614905     0.000000     0.259350
 H     4  1     0.574194     0.000000     1.348842
 H     5  1     1.162755    -0.892868    -0.066397
 H     6  1     1.162755     0.892868    -0.066397
[FREQ]
  297.4309
 1043.2523
 1070.7510
 1168.6327
 1356.0362
 1480.3416
 1495.1691
 1506.2768
 2989.3408
 3036.3639
 3112.3292
 3846.8612
[INT]
  135.9585
  128.7338
    0.6418
    0.2110
   20.9420
    5.0677
    3.5919
    5.1481
   68.2925
   63.7474
   27.3879
   30.3408
[FR-COORD]
 H    -1.383518     0.000000    -2.196846
 O    -1.383518     0.000000    -0.380219
 C     1.162002     0.000000     0.490100
 H     1.085069     0.000000     2.548942
 H     2.197288    -1.687276    -0.125472
 H     2.197288     1.687276    -0.125472
[FR-NORM-COORD]
vibration     1
    0.000000     0.000000     0.890000
    0.000000     0.000000    -0.070000
    0.000000     0.000000     0.010000
    0.000000     0.000000     0.290000
    0.220000    -0.030000    -0.100000
   -0.220000     0.030000    -0.100000
vibration     2
   -0.280000    -0.470000     0.000000
    0.000000     0.290000     0.000000
    0.060000    -0.300000     0.000000
   -0.060000    -0.660000     0.000000
   -0.200000     0.020000     0.020000
   -0.200000     0.020000    -0.020000
vibration     3
    0.190000     0.620000     0.000000
    0.010000     0.070000     0.000000
   -0.070000    -0.130000     0.000000
    0.110000     0.460000     0.000000
    0.220000    -0.340000    -0.050000
    0.220000    -0.340000     0.050000
vibration     4
    0.000000     0.000000     0.010000
    0.000000     0.000000     0.060000
    0.000000     0.000000    -0.140000
    0.000000     0.000000     0.280000
   -0.060000    -0.640000     0.190000
    0.060000     0.640000     0.190000
vibration     5
    0.200000     0.770000     0.000000
   -0.080000    -0.030000     0.000000
    0.130000    -0.020000     0.000000
    0.010000    -0.420000     0.000000
   -0.220000     0.160000     0.110000
   -0.220000     0.160000    -0.110000
vibration     6
    0.000000     0.040000     0.000000
   -0.010000     0.020000     0.000000
   -0.020000     0.100000     0.000000
   -0.220000    -0.630000     0.000000
    0.250000    -0.450000     0.090000
    0.250000    -0.450000    -0.090000
vibration     7
    0.000000     0.000000    -0.010000
    0.000000     0.000000    -0.010000
    0.000000     0.000000    -0.060000
    0.000000     0.000000     0.720000
   -0.390000     0.280000     0.060000
    0.390000    -0.280000     0.060000
vibration     8
   -0.020000    -0.100000     0.000000
    0.020000     0.010000     0.000000
    0.040000     0.030000     0.000000
    0.090000     0.270000     0.000000
   -0.430000    -0.340000     0.400000
   -0.430000    -0.340000    -0.400000
vibration     9
    0.000000     0.000000     0.000000
    0.000000     0.000000     0.000000
   -0.030000    -0.040000     0.000000
   -0.260000     0.070000     0.000000
    0.300000     0.240000     0.560000
    0.300000     0.240000    -0.560000
vibration    10
    0.000000     0.000000     0.000000
    0.000000     0.000000     0.000000
    0.000000     0.000000     0.090000
    0.000000     0.000000     0.030000
   -0.330000    -0.250000    -0.570000
    0.330000     0.250000    -0.570000
vibration    11
    0.020000     0.000000     0.000000
    0.000000     0.000000     0.000000
    0.090000    -0.010000     0.000000
   -0.930000     0.270000     0.000000
   -0.060000    -0.060000    -0.150000
   -0.060000    -0.060000     0.150000
vibration    12
    0.940000    -0.330000     0.000000
   -0.060000     0.020000     0.000000
    0.000000     0.000000     0.000000
    0.010000     0.000000     0.000000
    0.000000     0.000000     0.000000
    0.000000     0.000000     0.000000
