[Molden Format]
[Atoms] Angs
 C     1  6     0.000000     0.000000     0.000000
 H     2  1     0.000000     0.000000     1.090926
 H     3  1     1.028535     0.000000    -0.363642
 H     4  1    -0.514267    -0.890737    -0.363642
 H     5  1    -0.514267     0.890737    -0.363642
[FREQ]
 1340.3399
 1340.3399
 1340.3399
 1557.8868
 1557.8868
 3023.9782
 3129.6544
 3129.6544
 3129.6544
[INT]
   18.6466
   18.6466
   18.6466
    0.0000
    0.0000
    0.0000
   25.4865
   25.4865
   25.4865
[FR-COORD]
 C     0.000000     0.000000     0.000000
 H     0.000000     0.000000     2.061551
 H     1.943649     0.000000    -0.687184
 H    -0.971824    -1.683249    -0.687184
 H    -0.971824     1.683249    -0.687184
[FR-NORM-COORD]
vibration     1
    0.000000     0.120000     0.010000
    0.240000    -0.340000     0.200000
    0.190000    -0.390000    -0.280000
   -0.220000    -0.400000    -0.260000
   -0.270000    -0.350000     0.180000
vibration     2
    0.000000    -0.010000     0.120000
    0.190000     0.280000    -0.390000
   -0.270000    -0.180000    -0.350000
    0.240000    -0.200000    -0.340000
   -0.220000     0.260000    -0.400000
vibration     3
    0.120000     0.000000     0.000000
   -0.390000     0.240000     0.240000
   -0.370000     0.250000    -0.210000
   -0.370000    -0.210000     0.250000
   -0.360000    -0.230000    -0.230000
vibration     4
    0.000000     0.000000     0.000000
   -0.070000     0.380000    -0.320000
    0.070000    -0.380000    -0.320000
    0.070000     0.380000     0.320000
   -0.070000    -0.380000     0.320000
vibration     5
    0.000000     0.000000     0.000000
    0.400000    -0.140000    -0.260000
   -0.400000     0.140000    -0.260000
   -0.400000    -0.140000     0.260000
    0.400000     0.140000     0.260000
vibration     6
    0.000000     0.000000     0.000000
   -0.290000    -0.290000    -0.290000
    0.290000     0.290000    -0.290000
    0.290000    -0.290000     0.290000
   -0.290000     0.290000     0.290000
vibration     7
    0.000000     0.090000     0.000000
   -0.310000    -0.290000    -0.310000
   -0.290000    -0.270000     0.290000
    0.280000    -0.260000     0.280000
    0.300000    -0.280000    -0.300000
vibration     8
    0.000000     0.000000     0.090000
   -0.290000    -0.290000    -0.270000
    0.300000     0.300000    -0.280000
   -0.310000     0.310000    -0.290000
    0.280000    -0.280000    -0.260000
vibration     9
    0.090000     0.000000     0.000000
   -0.270000    -0.290000    -0.290000
   -0.280000    -0.300000     0.290000
   -0.270000     0.290000    -0.290000
   -0.280000     0.300000     0.300000
