 Entering Gaussian System, Link 0=/usr/local/g03/g03
 Initial command:
 /usr/local/g03/l1.exe /home/chaquin/ENSEIGNEMENT/Gau-4726.inp -scrdir=/home/chaquin/ENSEIGNEMENT/
 Entering Link 1 = /usr/local/g03/l1.exe PID=      4729.
  
 Copyright (c) 1988,1990,1992,1993,1995,1998,2003,2004, Gaussian, Inc.
                  All Rights Reserved.
  
 This is the Gaussian(R) 03 program.  It is based on the
 the Gaussian(R) 98 system (copyright 1998, Gaussian, Inc.),
 the Gaussian(R) 94 system (copyright 1995, Gaussian, Inc.),
 the Gaussian 92(TM) system (copyright 1992, Gaussian, Inc.),
 the Gaussian 90(TM) system (copyright 1990, Gaussian, Inc.),
 the Gaussian 88(TM) system (copyright 1988, Gaussian, Inc.),
 the Gaussian 86(TM) system (copyright 1986, Carnegie Mellon
 University), and the Gaussian 82(TM) system (copyright 1983,
 Carnegie Mellon University). Gaussian is a federally registered
 trademark of Gaussian, Inc.
  
 This software contains proprietary and confidential information,
 including trade secrets, belonging to Gaussian, Inc.
  
 This software is provided under written license and may be
 used, copied, transmitted, or stored only in accord with that
 written license.
  
 The following legend is applicable only to US Government
 contracts under FAR:
  
                    RESTRICTED RIGHTS LEGEND
  
 Use, reproduction and disclosure by the US Government is
 subject to restrictions as set forth in subparagraphs (a)
 and (c) of the Commercial Computer Software - Restricted
 Rights clause in FAR 52.227-19.
  
 Gaussian, Inc.
 340 Quinnipiac St., Bldg. 40, Wallingford CT 06492
  
  
 ---------------------------------------------------------------
 Warning -- This program may not be used in any manner that
 competes with the business of Gaussian, Inc. or will provide
 assistance to any competitor of Gaussian, Inc.  The licensee
 of this program is prohibited from giving any competitor of
 Gaussian, Inc. access to this program.  By using this program,
 the user acknowledges that Gaussian, Inc. is engaged in the
 business of creating and licensing software in the field of
 computational chemistry and represents and warrants to the
 licensee that it is not a competitor of Gaussian, Inc. and that
 it will not use this program in any manner prohibited above.
 ---------------------------------------------------------------
  

 Cite this work as:
 Gaussian 03, Revision C.02,
 M. J. Frisch, G. W. Trucks, H. B. Schlegel, G. E. Scuseria, 
 M. A. Robb, J. R. Cheeseman, J. A. Montgomery, Jr., T. Vreven, 
 K. N. Kudin, J. C. Burant, J. M. Millam, S. S. Iyengar, J. Tomasi, 
 V. Barone, B. Mennucci, M. Cossi, G. Scalmani, N. Rega, 
 G. A. Petersson, H. Nakatsuji, M. Hada, M. Ehara, K. Toyota, 
 R. Fukuda, J. Hasegawa, M. Ishida, T. Nakajima, Y. Honda, O. Kitao, 
 H. Nakai, M. Klene, X. Li, J. E. Knox, H. P. Hratchian, J. B. Cross, 
 C. Adamo, J. Jaramillo, R. Gomperts, R. E. Stratmann, O. Yazyev, 
 A. J. Austin, R. Cammi, C. Pomelli, J. W. Ochterski, P. Y. Ayala, 
 K. Morokuma, G. A. Voth, P. Salvador, J. J. Dannenberg, 
 V. G. Zakrzewski, S. Dapprich, A. D. Daniels, M. C. Strain, 
 O. Farkas, D. K. Malick, A. D. Rabuck, K. Raghavachari, 
 J. B. Foresman, J. V. Ortiz, Q. Cui, A. G. Baboul, S. Clifford, 
 J. Cioslowski, B. B. Stefanov, G. Liu, A. Liashenko, P. Piskorz, 
 I. Komaromi, R. L. Martin, D. J. Fox, T. Keith, M. A. Al-Laham, 
 C. Y. Peng, A. Nanayakkara, M. Challacombe, P. M. W. Gill, 
 B. Johnson, W. Chen, M. W. Wong, C. Gonzalez, and J. A. Pople, 
 Gaussian, Inc., Wallingford CT, 2004.
 
 ******************************************
 Gaussian 03:  AM64L-G03RevC.02 12-Jun-2004
                18-Mar-2012 
 ******************************************
 %chk=geom
 ----------------------------------------------------
 # B3LYP 6-311+G** geom=checkpoint freq pop=none test
 ----------------------------------------------------
 1/10=4,29=2,30=1,38=1/1,3;
 2/40=1/2;
 3/5=4,6=6,7=111,11=2,16=1,25=1,30=1,74=-5/1,2,3;
 4//1;
 5/5=2,38=5/2;
 8/6=4,10=90,11=11/1;
 11/6=1,8=1,9=11,15=111,16=1/1,2,10;
 10/6=1/2;
 7/8=1,10=1,25=1/1,2,3,16;
 1/10=4,30=1/3;
 99//99;
 ---------------------------
 *** Vibrations H2O **** 0 1
 ---------------------------
 Z-Matrix taken from the checkpoint file:
 geom.chk
 Charge =  0 Multiplicity = 1
 C
 H,1,hc
 H,1,hc,2,hch
 H,1,hc,2,hch,3,dih4,0
 H,1,hc,2,hch,3,dih5,0
      Variables:
 hc=1.09092587
 hch=109.47122063
      Constants:
 dih4=120.
 dih5=-120.
 Recover connectivity data from disk.
    3 tetrahedral angles replaced.

 GradGradGradGradGradGradGradGradGradGradGradGradGradGradGradGradGradGrad
 Berny optimization.
 Initialization pass.
                       ----------------------------
                       !    Initial Parameters    !
                       ! (Angstroms and Degrees)  !
 ----------------------                            ----------------------
 !      Name          Value   Derivative information (Atomic Units)     !
 ------------------------------------------------------------------------
 !       hc          1.0909   calculate D2E/DX2 analytically            !
 !       hch       109.4712   calculate D2E/DX2 analytically            !
 !      dih4       120.0      frozen, calculate D2E/DX2 analytically    !
 !      dih5      -120.0      frozen, calculate D2E/DX2 analytically    !
 ------------------------------------------------------------------------
 Trust Radius=3.00D-01 FncErr=1.00D-07 GrdErr=1.00D-07
 Number of steps in this run=   2 maximum allowed number of steps=   2.
 GradGradGradGradGradGradGradGradGradGradGradGradGradGradGradGradGradGrad

                          Input orientation:                          
 ---------------------------------------------------------------------
 Center     Atomic     Atomic              Coordinates (Angstroms)
 Number     Number      Type              X           Y           Z
 ---------------------------------------------------------------------
    1          6             0        0.000000    0.000000    0.000000
    2          1             0        0.000000    0.000000    1.090926
    3          1             0        1.028535    0.000000   -0.363642
    4          1             0       -0.514267   -0.890737   -0.363642
    5          1             0       -0.514267    0.890737   -0.363642
 ---------------------------------------------------------------------
                    Distance matrix (angstroms):
                    1          2          3          4          5
     1  C    0.000000
     2  H    1.090926   0.000000
     3  H    1.090926   1.781474   0.000000
     4  H    1.090926   1.781474   1.781474   0.000000
     5  H    1.090926   1.781474   1.781474   1.781474   0.000000
 Stoichiometry    CH4
 Framework group  TD[O(C),4C3(H)]
 Deg. of freedom     1
 Full point group                 TD      NOp  24
 Largest Abelian subgroup         D2      NOp   4
 Largest concise Abelian subgroup D2      NOp   4
                         Standard orientation:                         
 ---------------------------------------------------------------------
 Center     Atomic     Atomic              Coordinates (Angstroms)
 Number     Number      Type              X           Y           Z
 ---------------------------------------------------------------------
    1          6             0        0.000000    0.000000    0.000000
    2          1             0        0.629846    0.629846    0.629846
    3          1             0       -0.629846   -0.629846    0.629846
    4          1             0       -0.629846    0.629846   -0.629846
    5          1             0        0.629846   -0.629846   -0.629846
 ---------------------------------------------------------------------
 Rotational constants (GHZ):    158.0057304    158.0057304    158.0057304
 Standard basis: 6-311+G(d,p) (5D, 7F)
 There are    13 symmetry adapted basis functions of A   symmetry.
 There are    11 symmetry adapted basis functions of B1  symmetry.
 There are    11 symmetry adapted basis functions of B2  symmetry.
 There are    11 symmetry adapted basis functions of B3  symmetry.
 Integral buffers will be    131072 words long.
 Raffenetti 2 integral format.
 Two-electron integral symmetry is turned on.
    46 basis functions,    68 primitive gaussians,    47 cartesian basis functions
     5 alpha electrons        5 beta electrons
       nuclear repulsion energy        13.4239865291 Hartrees.
 NAtoms=    5 NActive=    5 NUniq=    2 SFac= 5.66D+00 NAtFMM=   60 Big=F
 One-electron integrals computed using PRISM.
 NBasis=    46 RedAO= T  NBF=    13    11    11    11
 NBsUse=    46 1.00D-06 NBFU=    13    11    11    11
 Harris functional with IExCor=  402 diagonalized for initial guess.
 ExpMin= 4.38D-02 ExpMax= 4.56D+03 ExpMxC= 6.82D+02 IAcc=2 IRadAn=         4 AccDes= 0.00D+00
 HarFok:  IExCor= 402 AccDes= 0.00D+00 IRadAn=         4 IDoV=1
 ScaDFX=  1.000000  1.000000  1.000000  1.000000
 Initial guess orbital symmetries:
       Occupied  (A1) (A1) (T2) (T2) (T2)
       Virtual   (A1) (T2) (T2) (T2) (T2) (T2) (T2) (A1) (T2) (T2)
                 (T2) (T2) (T2) (T2) (A1) (A1) (E) (E) (T1) (T1)
                 (T1) (T2) (T2) (T2) (T2) (T2) (T2) (A1) (E) (E)
                 (T2) (T2) (T2) (T2) (T2) (T2) (A1) (T2) (T2) (T2)
                 (A1)
 The electronic state of the initial guess is 1-A1.
 Requested convergence on RMS density matrix=1.00D-08 within 128 cycles.
 Requested convergence on MAX density matrix=1.00D-06.
 Requested convergence on             energy=1.00D-06.
 No special actions if energy rises.
 Keep R1 integrals in memory in canonical form, NReq=     1580331.
 SCF Done:  E(RB+HF-LYP) =  -40.5339327525     A.U. after    6 cycles
             Convg  =    0.9147D-08             -V/T =  2.0063
             S**2   =   0.0000
 Range of M.O.s used for correlation:     1    46
 NBasis=    46 NAE=     5 NBE=     5 NFC=     0 NFV=     0
 NROrb=     46 NOA=     5 NOB=     5 NVA=    41 NVB=    41
 Symmetrizing basis deriv contribution to polar:
 IMax=3 JMax=2 DiffMx= 0.00D+00
 G2DrvN: will do    6 centers at a time, making    1 passes doing MaxLOS=2.
 FoFDir/FoFCou used for L=0 through L=2.
 DoAtom=TTTTT
          Differentiating once with respect to electric field.
                with respect to dipole field.
          Differentiating once with respect to nuclear coordinates.
          Store integrals in memory, NReq=     1458001.
          There are   9 degrees of freedom in the 1st order CPHF.
     9 vectors were produced by pass  0.
 AX will form   9 AO Fock derivatives at one time.
     9 vectors were produced by pass  1.
     9 vectors were produced by pass  2.
     9 vectors were produced by pass  3.
     9 vectors were produced by pass  4.
     4 vectors were produced by pass  5.
 Inv2:  IOpt= 1 Iter= 1 AM= 1.10D-15 Conv= 1.00D-12.
 Inverted reduced A of dimension   49 with in-core refinement.
 Isotropic polarizability for W=    0.000000       14.31 Bohr**3.
 End of Minotr Frequency-dependent properties file   721 does not exist.
 Full mass-weighted force constant matrix:
 Low frequencies ---   -0.0009   -0.0007    0.0004   58.9073   58.9073   58.9073
 Low frequencies --- 1340.3399 1340.3399 1340.3399
 Diagonal vibrational polarizability:
        0.3493456       0.3493456       0.3493456
 Harmonic frequencies (cm**-1), IR intensities (KM/Mole), Raman scattering
 activities (A**4/AMU), depolarization ratios for plane and unpolarized
 incident light, reduced masses (AMU), force constants (mDyne/A),
 and normal coordinates:
                     1                      2                      3
                    T2                     T2                     T2
 Frequencies --  1340.3399              1340.3399              1340.3399
 Red. masses --     1.1799                 1.1799                 1.1799
 Frc consts  --     1.2488                 1.2488                 1.2488
 IR Inten    --    18.6466                18.6466                18.6466
 Atom AN      X      Y      Z        X      Y      Z        X      Y      Z
   1   6     0.00   0.12   0.01     0.00  -0.01   0.12     0.12   0.00   0.00
   2   1     0.24  -0.34   0.20     0.19   0.28  -0.39    -0.39   0.24   0.24
   3   1     0.19  -0.39  -0.28    -0.27  -0.18  -0.35    -0.37   0.25  -0.21
   4   1    -0.22  -0.40  -0.26     0.24  -0.20  -0.34    -0.37  -0.21   0.25
   5   1    -0.27  -0.35   0.18    -0.22   0.26  -0.40    -0.36  -0.23  -0.23
                     4                      5                      6
                     E                      E                     A1
 Frequencies --  1557.8868              1557.8868              3023.9782
 Red. masses --     1.0078                 1.0078                 1.0078
 Frc consts  --     1.4411                 1.4411                 5.4299
 IR Inten    --     0.0000                 0.0000                 0.0000
 Atom AN      X      Y      Z        X      Y      Z        X      Y      Z
   1   6     0.00   0.00   0.00     0.00   0.00   0.00     0.00   0.00   0.00
   2   1    -0.07   0.38  -0.32     0.40  -0.14  -0.26    -0.29  -0.29  -0.29
   3   1     0.07  -0.38  -0.32    -0.40   0.14  -0.26     0.29   0.29  -0.29
   4   1     0.07   0.38   0.32    -0.40  -0.14   0.26     0.29  -0.29   0.29
   5   1    -0.07  -0.38   0.32     0.40   0.14   0.26    -0.29   0.29   0.29
                     7                      8                      9
                    T2                     T2                     T2
 Frequencies --  3129.6544              3129.6544              3129.6544
 Red. masses --     1.1009                 1.1009                 1.1009
 Frc consts  --     6.3531                 6.3531                 6.3531
 IR Inten    --    25.4865                25.4865                25.4865
 Atom AN      X      Y      Z        X      Y      Z        X      Y      Z
   1   6     0.00   0.09   0.00     0.00   0.00   0.09     0.09   0.00   0.00
   2   1    -0.31  -0.29  -0.31    -0.29  -0.29  -0.27    -0.27  -0.29  -0.29
   3   1    -0.29  -0.27   0.29     0.30   0.30  -0.28    -0.28  -0.30   0.29
   4   1     0.28  -0.26   0.28    -0.31   0.31  -0.29    -0.27   0.29  -0.29
   5   1     0.30  -0.28  -0.30     0.28  -0.28  -0.26    -0.28   0.30   0.30

 -------------------
 - Thermochemistry -
 -------------------
 Temperature   298.150 Kelvin.  Pressure   1.00000 Atm.
 Atom  1 has atomic number  6 and mass  12.00000
 Atom  2 has atomic number  1 and mass   1.00783
 Atom  3 has atomic number  1 and mass   1.00783
 Atom  4 has atomic number  1 and mass   1.00783
 Atom  5 has atomic number  1 and mass   1.00783
 Molecular mass:    16.03130 amu.
 Principal axes and moments of inertia in atomic units:
                           1         2         3
     EIGENVALUES --    11.42200  11.42200  11.42200
           X            0.97511   0.00000   0.22172
           Y           -0.22172   0.00000   0.97511
           Z            0.00000   1.00000   0.00000
 This molecule is a spherical top.
 Rotational symmetry number 12.
 Rotational temperatures (Kelvin)      7.58307     7.58307     7.58307
 Rotational constants (GHZ):         158.00573   158.00573   158.00573
 Zero-point vibrational energy     116933.4 (Joules/Mol)
                                   27.94775 (Kcal/Mol)
 Vibrational temperatures:   1928.45  1928.45  1928.45  2241.45  2241.45
          (Kelvin)           4350.82  4502.87  4502.87  4502.87
 
 Zero-point correction=                           0.044538 (Hartree/Particle)
 Thermal correction to Energy=                    0.047406
 Thermal correction to Enthalpy=                  0.048351
 Thermal correction to Gibbs Free Energy=         0.027220
 Sum of electronic and zero-point Energies=            -40.489395
 Sum of electronic and thermal Energies=               -40.486526
 Sum of electronic and thermal Enthalpies=             -40.485582
 Sum of electronic and thermal Free Energies=          -40.506713
 
                     E (Thermal)             CV                S
                      KCal/Mol        Cal/Mol-Kelvin    Cal/Mol-Kelvin
 Total                   29.748              6.473             44.474
 Electronic               0.000              0.000              0.000
 Translational            0.889              2.981             34.261
 Rotational               0.889              2.981             10.125
 Vibrational             27.970              0.511              0.088
                       Q            Log10(Q)             Ln(Q)
 Total Bot       0.301901D-12        -12.520135        -28.828677
 Total V=0       0.924024D+08          7.965683         18.341663
 Vib (Bot)       0.328608D-20        -20.483322        -47.164592
 Vib (V=0)       0.100577D+01          0.002497          0.005749
 Electronic      0.100000D+01          0.000000          0.000000
 Translational   0.252295D+07          6.401908         14.740939
 Rotational      0.364148D+02          1.561278          3.594976
 ***** Axes restored to original set *****
 -------------------------------------------------------------------
 Center     Atomic                   Forces (Hartrees/Bohr)
 Number     Number              X              Y              Z
 -------------------------------------------------------------------
    1          6           0.000000000    0.000000000    0.000000000
    2          1           0.000000000    0.000000000   -0.000004792
    3          1          -0.000004518    0.000000000    0.000001597
    4          1           0.000002259    0.000003913    0.000001597
    5          1           0.000002259   -0.000003913    0.000001597
 -------------------------------------------------------------------
 Cartesian Forces:  Max     0.000004792 RMS     0.000002475
 ------------------------------------------------------------------------
           Internal Coordinate Forces (Hartree/Bohr or radian)
 Cent Atom N1     Length/X     N2     Alpha/Y      N3      Beta/Z       J
 ------------------------------------------------------------------------
   1  C 
   2  H     1  -0.000005(   1)
   3  H     1  -0.000005(   2)  2   0.000000(   5)
   4  H     1  -0.000005(   3)  2   0.000000(   6)  3   0.000000(   8)  0
   5  H     1  -0.000005(   4)  2   0.000000(   7)  3   0.000000(   9)  0
 ------------------------------------------------------------------------
 Internal  Forces:  Max     0.000004792 RMS     0.000003195

 GradGradGradGradGradGradGradGradGradGradGradGradGradGradGradGradGradGrad
 Berny optimization.
 Search for a local minimum.
 Step number   1 out of a maximum of   2
 All quantities printed in internal units (Hartrees-Bohrs-Radians)
 Second derivative matrix not updated -- analytic derivatives used.
 The second derivative matrix:
                          hc        hch      dih4      dih5
           hc           1.39506
           hch          0.00000   0.73096
           dih4         0.00000   0.00000   0.16882
           dih5         0.00000   0.00000  -0.08417   0.16882
     Eigenvalues ---    0.73096   1.395061000.000001000.00000
 Angle between quadratic step and forces=   0.00 degrees.
 Linear search not attempted -- first point.
 Variable       Old X    -DE/DX   Delta X   Delta X   Delta X     New X
                                 (Linear)    (Quad)   (Total)
    hc        2.06155  -0.00002   0.00000  -0.00001  -0.00001   2.06154
   hch        1.91063   0.00000   0.00000   0.00000   0.00000   1.91063
   dih4       2.09440   0.00000   0.00000   0.00000   0.00000   2.09440
   dih5      -2.09440   0.00000   0.00000   0.00000   0.00000  -2.09440
         Item               Value     Threshold  Converged?
 Maximum Force            0.000019     0.000450     YES
 RMS     Force            0.000014     0.000300     YES
 Maximum Displacement     0.000014     0.001800     YES
 RMS     Displacement     0.000007     0.001200     YES
 Predicted change in Energy=-1.316845D-10
 Optimization completed.
    -- Stationary point found.
                       ----------------------------
                       !   Optimized Parameters   !
                       ! (Angstroms and Degrees)  !
 ----------------------                            ----------------------
 !      Name          Value   Derivative information (Atomic Units)     !
 ------------------------------------------------------------------------
 !       hc          1.0909   -DE/DX =    0.0                           !
 !       hch       109.4712   -DE/DX =    0.0                           !
 !      dih4       120.0      -DE/DX =    0.0                           !
 !      dih5      -120.0      -DE/DX =    0.0                           !
 ------------------------------------------------------------------------
 GradGradGradGradGradGradGradGradGradGradGradGradGradGradGradGradGradGrad


 Test job not archived.
 1\1\GINC-CLUSTER-BIO\Freq\RB3LYP\6-311+G(d,p)\C1H4\CHAQUIN\18-Mar-2012
 \1\\# B3LYP 6-311+G** GEOM=CHECKPOINT FREQ POP=NONE TEST\\*** Vibratio
 ns H2O **** 0 1\\0,1\C\H,1,hc\H,1,hc,2,hch\H,1,hc,2,hch,3,dih4,0\H,1,h
 c,2,hch,3,dih5,0\\hc=1.09092587\hch=109.47122063\dih4=120.\dih5=-120.\
 \Version=AM64L-G03RevC.02\State=1-A1\HF=-40.5339328\RMSD=9.147e-09\RMS
 F=2.475e-06\Dipole=0.,0.,0.\DipoleDeriv=-0.0209859,0.,0.,0.,-0.0209859
 ,0.,0.,0.,-0.0209859,0.0806433,0.,0.,0.,0.0806433,0.,0.,0.,-0.1455471,
 -0.1204149,0.,0.0710848,0.,0.0806433,0.,0.0710848,0.,0.055511,0.030378
 8,-0.0870607,-0.0355424,-0.0870607,-0.0701503,-0.0615612,-0.0355424,-0
 .0615612,0.055511,0.0303788,0.0870607,-0.0355424,0.0870607,-0.0701503,
 0.0615612,-0.0355424,0.0615612,0.055511\Polar=14.3086851,0.,14.3086851
 ,0.,0.,14.3086851\PG=TD [O(C1),4C3(H1)]\NImag=0\\0.54036240,0.,0.54036
 240,0.,0.,0.54036240,-0.04514130,0.,0.,0.04469057,0.,-0.04514130,0.,0.
 ,0.04469057,0.,0.,-0.31498921,0.,0.,0.34171983,-0.28500611,0.,0.084805
 02,0.00195876,0.,-0.00065911,0.30871658,0.,-0.04514130,0.,0.,-0.001658
 27,0.,0.,0.04469057,0.08480502,0.,-0.07512440,0.03140118,0.,-0.0089102
 1,-0.09334729,0.,0.07769382,-0.10510750,-0.10386451,-0.04240251,-0.000
 75401,0.00156622,0.00032955,-0.01283462,-0.02511689,-0.01142945,0.1106
 9707,-0.10386451,-0.22503990,-0.07344330,0.00156622,0.00105450,0.00057
 080,0.00106023,0.00105450,0.00128638,0.11432662,0.24271008,-0.04240251
 ,-0.07344330,-0.07512440,-0.01570059,-0.02719422,-0.00891021,0.0046006
 9,0.01054139,0.00317039,0.04667365,0.08084113,0.07769382,-0.10510750,0
 .10386451,-0.04240251,-0.00075401,-0.00156622,0.00032955,-0.01283462,0
 .02511689,-0.01142945,0.00799906,-0.01308856,0.00682876,0.11069707,0.1
 0386451,-0.22503990,0.07344330,-0.00156622,0.00105450,-0.00057080,-0.0
 0106023,0.00105450,-0.00128638,0.01308856,-0.01977917,0.00925501,-0.11
 432662,0.24271008,-0.04240251,0.07344330,-0.07512440,-0.01570059,0.027
 19422,-0.00891021,0.00460069,-0.01054139,0.00317039,0.00682876,-0.0092
 5501,0.00317039,0.04667365,-0.08084113,0.07769382\\0.,0.,0.,0.,0.,0.00
 000479,0.00000452,0.,-0.00000160,-0.00000226,-0.00000391,-0.00000160,-
 0.00000226,0.00000391,-0.00000160\\\@


 IN SO FAR AS QUANTUM MECHANICS IS CORRECT, CHEMICAL 
 QUESTIONS ARE PROBLEMS IN APPLIED MATHEMATICS.

                    -- EYRING, WALTER, & KIMBALL, 1944
 Job cpu time:  0 days  0 hours  0 minutes 20.3 seconds.
 File lengths (MBytes):  RWF=     13 Int=      0 D2E=      0 Chk=     15 Scr=      1
 Normal termination of Gaussian 03 at Sun Mar 18 11:26:51 2012.
24.69user 2.66system 0:27.36elapsed 99%CPU (0avgtext+0avgdata 0maxresident)k
0inputs+0outputs (0major+911097minor)pagefaults 0swaps
