[Molden Format]
[Atoms] Angs
 C     1  6     0.000000     0.000000     0.453502
 H     2  1     0.000000     0.000000     1.535624
Cl     3 17     1.703539     0.000000    -0.083463
Cl     4 17    -0.851769    -1.475308    -0.083463
Cl     5 17    -0.851769     1.475308    -0.083463
[FREQ]
  261.3401
  261.3418
  364.9161
  661.8572
  729.6313
  729.6497
 1246.3822
 1246.3943
 3184.3194
[INT]
    0.0028
    0.0026
    0.2207
    5.2906
  191.1236
  191.1241
   27.4635
   27.4534
    0.1251
[FR-COORD]
 C     0.000000     0.000000     0.856995
 H     0.000000     0.000000     2.901909
Cl     3.219222     0.000000    -0.157722
Cl    -1.609610    -2.787928    -0.157722
Cl    -1.609610     2.787928    -0.157722
[FR-NORM-COORD]
vibration     1
   -0.290000     0.000000     0.000000
   -0.460000     0.000000     0.000000
    0.520000     0.000000     0.000000
   -0.210000     0.420000    -0.030000
   -0.210000    -0.420000     0.030000
vibration     2
    0.000000    -0.290000     0.000000
    0.000000    -0.460000     0.000000
    0.000000    -0.450000    -0.030000
    0.420000     0.280000     0.010000
   -0.420000     0.280000     0.010000
vibration     3
    0.000000     0.000000    -0.480000
    0.000000     0.000000    -0.500000
    0.000000     0.410000     0.060000
    0.360000    -0.210000     0.060000
   -0.360000    -0.210000     0.060000
vibration     4
    0.000000     0.000000     0.680000
    0.000000     0.000000     0.700000
    0.000000     0.110000    -0.080000
    0.100000    -0.060000    -0.080000
   -0.100000    -0.060000    -0.080000
vibration     5
    0.000000     0.790000     0.000000
    0.000000     0.570000     0.000000
    0.000000    -0.160000     0.070000
    0.060000    -0.060000    -0.030000
   -0.060000    -0.060000    -0.030000
vibration     6
    0.790000     0.000000     0.000000
    0.570000     0.000000     0.000000
   -0.030000     0.000000     0.000000
   -0.130000     0.060000     0.060000
   -0.130000    -0.060000    -0.060000
vibration     7
   -0.070000     0.000000     0.000000
    1.000000     0.000000     0.000000
    0.000000     0.000000     0.000000
    0.000000     0.000000     0.010000
    0.000000     0.000000    -0.010000
vibration     8
    0.000000    -0.070000     0.000000
    0.000000     1.000000     0.000000
    0.000000    -0.010000     0.010000
    0.000000     0.000000    -0.010000
    0.000000     0.000000    -0.010000
vibration     9
    0.000000     0.000000    -0.090000
    0.000000     0.000000     1.000000
    0.000000     0.000000     0.000000
    0.000000     0.000000     0.000000
    0.000000     0.000000     0.000000
