 Entering Gaussian System, Link 0=/usr/local/g03/g03
 Initial command:
 /usr/local/g03/l1.exe /home/chaquin/ENSEIGNEMENT/Gau-4658.inp -scrdir=/home/chaquin/ENSEIGNEMENT/
 Entering Link 1 = /usr/local/g03/l1.exe PID=      4670.
  
 Copyright (c) 1988,1990,1992,1993,1995,1998,2003,2004, Gaussian, Inc.
                  All Rights Reserved.
  
 This is the Gaussian(R) 03 program.  It is based on the
 the Gaussian(R) 98 system (copyright 1998, Gaussian, Inc.),
 the Gaussian(R) 94 system (copyright 1995, Gaussian, Inc.),
 the Gaussian 92(TM) system (copyright 1992, Gaussian, Inc.),
 the Gaussian 90(TM) system (copyright 1990, Gaussian, Inc.),
 the Gaussian 88(TM) system (copyright 1988, Gaussian, Inc.),
 the Gaussian 86(TM) system (copyright 1986, Carnegie Mellon
 University), and the Gaussian 82(TM) system (copyright 1983,
 Carnegie Mellon University). Gaussian is a federally registered
 trademark of Gaussian, Inc.
  
 This software contains proprietary and confidential information,
 including trade secrets, belonging to Gaussian, Inc.
  
 This software is provided under written license and may be
 used, copied, transmitted, or stored only in accord with that
 written license.
  
 The following legend is applicable only to US Government
 contracts under FAR:
  
                    RESTRICTED RIGHTS LEGEND
  
 Use, reproduction and disclosure by the US Government is
 subject to restrictions as set forth in subparagraphs (a)
 and (c) of the Commercial Computer Software - Restricted
 Rights clause in FAR 52.227-19.
  
 Gaussian, Inc.
 340 Quinnipiac St., Bldg. 40, Wallingford CT 06492
  
  
 ---------------------------------------------------------------
 Warning -- This program may not be used in any manner that
 competes with the business of Gaussian, Inc. or will provide
 assistance to any competitor of Gaussian, Inc.  The licensee
 of this program is prohibited from giving any competitor of
 Gaussian, Inc. access to this program.  By using this program,
 the user acknowledges that Gaussian, Inc. is engaged in the
 business of creating and licensing software in the field of
 computational chemistry and represents and warrants to the
 licensee that it is not a competitor of Gaussian, Inc. and that
 it will not use this program in any manner prohibited above.
 ---------------------------------------------------------------
  

 Cite this work as:
 Gaussian 03, Revision C.02,
 M. J. Frisch, G. W. Trucks, H. B. Schlegel, G. E. Scuseria, 
 M. A. Robb, J. R. Cheeseman, J. A. Montgomery, Jr., T. Vreven, 
 K. N. Kudin, J. C. Burant, J. M. Millam, S. S. Iyengar, J. Tomasi, 
 V. Barone, B. Mennucci, M. Cossi, G. Scalmani, N. Rega, 
 G. A. Petersson, H. Nakatsuji, M. Hada, M. Ehara, K. Toyota, 
 R. Fukuda, J. Hasegawa, M. Ishida, T. Nakajima, Y. Honda, O. Kitao, 
 H. Nakai, M. Klene, X. Li, J. E. Knox, H. P. Hratchian, J. B. Cross, 
 C. Adamo, J. Jaramillo, R. Gomperts, R. E. Stratmann, O. Yazyev, 
 A. J. Austin, R. Cammi, C. Pomelli, J. W. Ochterski, P. Y. Ayala, 
 K. Morokuma, G. A. Voth, P. Salvador, J. J. Dannenberg, 
 V. G. Zakrzewski, S. Dapprich, A. D. Daniels, M. C. Strain, 
 O. Farkas, D. K. Malick, A. D. Rabuck, K. Raghavachari, 
 J. B. Foresman, J. V. Ortiz, Q. Cui, A. G. Baboul, S. Clifford, 
 J. Cioslowski, B. B. Stefanov, G. Liu, A. Liashenko, P. Piskorz, 
 I. Komaromi, R. L. Martin, D. J. Fox, T. Keith, M. A. Al-Laham, 
 C. Y. Peng, A. Nanayakkara, M. Challacombe, P. M. W. Gill, 
 B. Johnson, W. Chen, M. W. Wong, C. Gonzalez, and J. A. Pople, 
 Gaussian, Inc., Wallingford CT, 2004.
 
 ******************************************
 Gaussian 03:  AM64L-G03RevC.02 12-Jun-2004
                18-Mar-2012 
 ******************************************
 %chk=geom
 ----------------------------------------------------
 # B3LYP 6-311+G** geom=checkpoint freq pop=none test
 ----------------------------------------------------
 1/10=4,29=2,30=1,38=1/1,3;
 2/40=1/2;
 3/5=4,6=6,7=111,11=2,16=1,25=1,30=1,74=-5/1,2,3;
 4//1;
 5/5=2,38=5/2;
 8/6=4,10=90,11=11/1;
 11/6=1,8=1,9=11,15=111,16=1/1,2,10;
 10/6=1/2;
 7/8=1,10=1,25=1/1,2,3,16;
 1/10=4,30=1/3;
 99//99;
 ---------------------------
 *** Vibrations NH3 **** 0 1
 ---------------------------
 Z-Matrix taken from the checkpoint file:
 geom.chk
 Charge =  0 Multiplicity = 1
 C
 H,1,ch
 Cl,1,ph,2,a
 Cl,1,ph,2,a,3,d,0
 Cl,1,ph,2,a,3,-d,0
      Variables:
 ph=1.78616235
 a=107.49514587
 ch=1.08212278
      Constants:
 d=120.
 Recover connectivity data from disk.

 GradGradGradGradGradGradGradGradGradGradGradGradGradGradGradGradGradGrad
 Berny optimization.
 Initialization pass.
                       ----------------------------
                       !    Initial Parameters    !
                       ! (Angstroms and Degrees)  !
 ----------------------                            ----------------------
 !      Name          Value   Derivative information (Atomic Units)     !
 ------------------------------------------------------------------------
 !       ph          1.7862   calculate D2E/DX2 analytically            !
 !        a        107.4951   calculate D2E/DX2 analytically            !
 !       ch          1.0821   calculate D2E/DX2 analytically            !
 !        d        120.0      frozen, calculate D2E/DX2 analytically    !
 ------------------------------------------------------------------------
 Trust Radius=3.00D-01 FncErr=1.00D-07 GrdErr=1.00D-07
 Number of steps in this run=   2 maximum allowed number of steps=   2.
 GradGradGradGradGradGradGradGradGradGradGradGradGradGradGradGradGradGrad

                          Input orientation:                          
 ---------------------------------------------------------------------
 Center     Atomic     Atomic              Coordinates (Angstroms)
 Number     Number      Type              X           Y           Z
 ---------------------------------------------------------------------
    1          6             0        0.000000    0.000000    0.453502
    2          1             0        0.000000    0.000000    1.535624
    3         17             0        1.703539    0.000000   -0.083463
    4         17             0       -0.851769   -1.475308   -0.083463
    5         17             0       -0.851769    1.475308   -0.083463
 ---------------------------------------------------------------------
                    Distance matrix (angstroms):
                    1          2          3          4          5
     1  C    0.000000
     2  H    1.082123   0.000000
     3  Cl   1.786162   2.350211   0.000000
     4  Cl   1.786162   2.350211   2.950616   0.000000
     5  Cl   1.786162   2.350211   2.950616   2.950616   0.000000
 Stoichiometry    CHCl3
 Framework group  C3V[C3(CH),3SGV(Cl)]
 Deg. of freedom     3
 Full point group                 C3V     NOp   6
 Largest Abelian subgroup         CS      NOp   2
 Largest concise Abelian subgroup CS      NOp   2
                         Standard orientation:                         
 ---------------------------------------------------------------------
 Center     Atomic     Atomic              Coordinates (Angstroms)
 Number     Number      Type              X           Y           Z
 ---------------------------------------------------------------------
    1          6             0        0.000000    0.000000    0.453502
    2          1             0        0.000000    0.000000    1.535624
    3         17             0        0.000000    1.703539   -0.083463
    4         17             0        1.475308   -0.851769   -0.083463
    5         17             0       -1.475308   -0.851769   -0.083463
 ---------------------------------------------------------------------
 Rotational constants (GHZ):      3.2032511      3.2032511      1.6600092
 Standard basis: 6-311+G(d,p) (5D, 7F)
 There are    73 symmetry adapted basis functions of A'  symmetry.
 There are    45 symmetry adapted basis functions of A"  symmetry.
 Integral buffers will be    131072 words long.
 Raffenetti 2 integral format.
 Two-electron integral symmetry is turned on.
   118 basis functions,   203 primitive gaussians,   122 cartesian basis functions
    29 alpha electrons       29 beta electrons
       nuclear repulsion energy       260.5662354242 Hartrees.
 NAtoms=    5 NActive=    5 NUniq=    3 SFac= 3.59D+00 NAtFMM=   60 Big=F
 One-electron integrals computed using PRISM.
 NBasis=   118 RedAO= T  NBF=    73    45
 NBsUse=   118 1.00D-06 NBFU=    73    45
 Harris functional with IExCor=  402 diagonalized for initial guess.
 ExpMin= 4.38D-02 ExpMax= 1.06D+05 ExpMxC= 3.62D+03 IAcc=2 IRadAn=         4 AccDes= 0.00D+00
 HarFok:  IExCor= 402 AccDes= 0.00D+00 IRadAn=         4 IDoV=1
 ScaDFX=  1.000000  1.000000  1.000000  1.000000
 Initial guess orbital symmetries:
       Occupied  (E) (E) (A1) (A1) (E) (E) (A1) (E) (E) (A1) (A2)
                 (E) (E) (E) (E) (A1) (A1) (E) (E) (A1) (A1) (E)
                 (E) (E) (E) (A1) (E) (E) (A2)
       Virtual   (A1) (E) (E) (A1) (A1) (E) (E) (E) (E) (A1) (E)
                 (E) (A1) (E) (E) (A2) (A1) (E) (E) (A1) (A1) (E)
                 (E) (A1) (A1) (E) (E) (E) (E) (E) (E) (A2) (A1)
                 (E) (E) (A1) (A2) (E) (E) (E) (E) (A1) (A2) (E)
                 (E) (A1) (E) (E) (E) (E) (A1) (A1) (E) (E) (A1)
                 (E) (E) (E) (E) (A1) (A2) (E) (E) (E) (E) (E)
                 (E) (A1) (A1) (A1) (E) (E) (A1) (A1) (E) (E) (A1)
                 (E) (E) (A1) (A2) (E) (E) (E) (E) (A1) (A1) (E)
                 (E)
 The electronic state of the initial guess is 1-A1.
 Requested convergence on RMS density matrix=1.00D-08 within 128 cycles.
 Requested convergence on MAX density matrix=1.00D-06.
 Requested convergence on             energy=1.00D-06.
 No special actions if energy rises.
 SCF Done:  E(RB+HF-LYP) =  -1419.37966647     A.U. after   10 cycles
             Convg  =    0.3516D-08             -V/T =  2.0024
             S**2   =   0.0000
 Range of M.O.s used for correlation:     1   118
 NBasis=   118 NAE=    29 NBE=    29 NFC=     0 NFV=     0
 NROrb=    118 NOA=    29 NOB=    29 NVA=    89 NVB=    89

 **** Warning!!: The largest alpha MO coefficient is  0.42485089D+02

 Symmetrizing basis deriv contribution to polar:
 IMax=3 JMax=2 DiffMx= 0.00D+00
 G2DrvN: will do    6 centers at a time, making    1 passes doing MaxLOS=2.
 FoFDir/FoFCou used for L=0 through L=2.
 DoAtom=TTTTT
          Differentiating once with respect to electric field.
                with respect to dipole field.
          Differentiating once with respect to nuclear coordinates.
 Integrals replicated using symmetry in FoFDir.
 MinBra= 0 MaxBra= 2 Meth= 1.
 IRaf=       0 NMat=  12 IRICut=      12 DoRegI=T DoRafI=T ISym2E= 2 JSym2E=2.
          There are  12 degrees of freedom in the 1st order CPHF.
    12 vectors were produced by pass  0.
 AX will form  12 AO Fock derivatives at one time.
    12 vectors were produced by pass  1.
    12 vectors were produced by pass  2.
    12 vectors were produced by pass  3.
    12 vectors were produced by pass  4.
    12 vectors were produced by pass  5.
     9 vectors were produced by pass  6.
     3 vectors were produced by pass  7.
     1 vectors were produced by pass  8.
 Inv2:  IOpt= 1 Iter= 1 AM= 1.16D-15 Conv= 1.00D-12.
 Inverted reduced A of dimension   85 with in-core refinement.
 Isotropic polarizability for W=    0.000000       48.77 Bohr**3.
 End of Minotr Frequency-dependent properties file   721 does not exist.
 Full mass-weighted force constant matrix:
 Low frequencies ---   -6.0748   -6.0643   -5.8400   -0.0085    0.0214    0.1074
 Low frequencies ---  261.3402  261.3418  364.9161
 Diagonal vibrational polarizability:
       10.1377962      10.1380028       0.3699551
 Harmonic frequencies (cm**-1), IR intensities (KM/Mole), Raman scattering
 activities (A**4/AMU), depolarization ratios for plane and unpolarized
 incident light, reduced masses (AMU), force constants (mDyne/A),
 and normal coordinates:
                     1                      2                      3
                     E                      E                     A1
 Frequencies --   261.3401               261.3418               364.9161
 Red. masses --    26.0608                26.0606                21.3075
 Frc consts  --     1.0487                 1.0487                 1.6717
 IR Inten    --     0.0028                 0.0026                 0.2207
 Atom AN      X      Y      Z        X      Y      Z        X      Y      Z
   1   6    -0.29   0.00   0.00     0.00  -0.29   0.00     0.00   0.00  -0.48
   2   1    -0.46   0.00   0.00     0.00  -0.46   0.00     0.00   0.00  -0.50
   3  17     0.52   0.00   0.00     0.00  -0.45  -0.03     0.00   0.41   0.06
   4  17    -0.21   0.42  -0.03     0.42   0.28   0.01     0.36  -0.21   0.06
   5  17    -0.21  -0.42   0.03    -0.42   0.28   0.01    -0.36  -0.21   0.06
                     4                      5                      6
                    A1                      E                      E
 Frequencies --   661.8572               729.6313               729.6497
 Red. masses --     7.9908                 9.5981                 9.5985
 Frc consts  --     2.0624                 3.0105                 3.0108
 IR Inten    --     5.2906               191.1236               191.1241
 Atom AN      X      Y      Z        X      Y      Z        X      Y      Z
   1   6     0.00   0.00   0.68     0.00   0.79   0.00     0.79   0.00   0.00
   2   1     0.00   0.00   0.70     0.00   0.57   0.00     0.57   0.00   0.00
   3  17     0.00   0.11  -0.08     0.00  -0.16   0.07    -0.03   0.00   0.00
   4  17     0.10  -0.06  -0.08     0.06  -0.06  -0.03    -0.13   0.06   0.06
   5  17    -0.10  -0.06  -0.08    -0.06  -0.06  -0.03    -0.13  -0.06  -0.06
                     7                      8                      9
                     E                      E                     A1
 Frequencies --  1246.3822              1246.3943              3184.3194
 Red. masses --     1.0729                 1.0729                 1.0890
 Frc consts  --     0.9820                 0.9820                 6.5059
 IR Inten    --    27.4635                27.4534                 0.1251
 Atom AN      X      Y      Z        X      Y      Z        X      Y      Z
   1   6    -0.07   0.00   0.00     0.00  -0.07   0.00     0.00   0.00  -0.09
   2   1     1.00   0.00   0.00     0.00   1.00   0.00     0.00   0.00   1.00
   3  17     0.00   0.00   0.00     0.00  -0.01   0.01     0.00   0.00   0.00
   4  17     0.00   0.00   0.01     0.00   0.00  -0.01     0.00   0.00   0.00
   5  17     0.00   0.00  -0.01     0.00   0.00  -0.01     0.00   0.00   0.00

 -------------------
 - Thermochemistry -
 -------------------
 Temperature   298.150 Kelvin.  Pressure   1.00000 Atm.
 Atom  1 has atomic number  6 and mass  12.00000
 Atom  2 has atomic number  1 and mass   1.00783
 Atom  3 has atomic number 17 and mass  34.96885
 Atom  4 has atomic number 17 and mass  34.96885
 Atom  5 has atomic number 17 and mass  34.96885
 Molecular mass:   117.91438 amu.
 Principal axes and moments of inertia in atomic units:
                           1         2         3
     EIGENVALUES --   563.40921 563.409211087.18748
           X            0.14422   0.98955   0.00000
           Y            0.98955  -0.14422   0.00000
           Z            0.00000   0.00000   1.00000
 This molecule is an oblate symmetric top.
 Rotational symmetry number  3.
 Warning -- assumption of classical behavior for rotation
           may cause significant error
 Rotational temperatures (Kelvin)      0.15373     0.15373     0.07967
 Rotational constants (GHZ):           3.20325     3.20325     1.66001
 Zero-point vibrational energy      51952.8 (Joules/Mol)
                                   12.41702 (Kcal/Mol)
 Warning -- explicit consideration of   3 degrees of freedom as
           vibrations may cause significant error
 Vibrational temperatures:    376.01   376.01   525.03   952.26  1049.78
          (Kelvin)           1049.80  1793.26  1793.28  4581.52
 
 Zero-point correction=                           0.019788 (Hartree/Particle)
 Thermal correction to Energy=                    0.024266
 Thermal correction to Enthalpy=                  0.025211
 Thermal correction to Gibbs Free Energy=        -0.008399
 Sum of electronic and zero-point Energies=          -1419.359879
 Sum of electronic and thermal Energies=             -1419.355400
 Sum of electronic and thermal Enthalpies=           -1419.354456
 Sum of electronic and thermal Free Energies=        -1419.388066
 
                     E (Thermal)             CV                S
                      KCal/Mol        Cal/Mol-Kelvin    Cal/Mol-Kelvin
 Total                   15.227             13.797             70.738
 Electronic               0.000              0.000              0.000
 Translational            0.889              2.981             40.209
 Rotational               0.889              2.981             25.153
 Vibrational             13.450              7.836              5.375
 Vibration  1             0.669              1.744              1.653
 Vibration  2             0.669              1.744              1.653
 Vibration  3             0.738              1.544              1.101
                       Q            Log10(Q)             Ln(Q)
 Total Bot       0.730174D+04          3.863426          8.895868
 Total V=0       0.922901D+13         12.965155         29.853373
 Vib (Bot)       0.206976D-08         -8.684080        -19.995834
 Vib (Bot)  1    0.742723D+00         -0.129173         -0.297431
 Vib (Bot)  2    0.742718D+00         -0.129176         -0.297439
 Vib (Bot)  3    0.500630D+00         -0.300483         -0.691888
 Vib (V=0)       0.261606D+01          0.417648          0.961671
 Vib (V=0)  1    0.139534D+01          0.144681          0.333140
 Vib (V=0)  2    0.139534D+01          0.144679          0.333137
 Vib (V=0)  3    0.120755D+01          0.081906          0.188596
 Electronic      0.100000D+01          0.000000          0.000000
 Translational   0.503275D+08          7.701805         17.734062
 Rotational      0.700973D+05          4.845701         11.157640
 ***** Axes restored to original set *****
 -------------------------------------------------------------------
 Center     Atomic                   Forces (Hartrees/Bohr)
 Number     Number              X              Y              Z
 -------------------------------------------------------------------
    1          6           0.000000000    0.000000000   -0.000003029
    2          1           0.000000000    0.000000000    0.000046032
    3         17           0.000110200    0.000000000   -0.000014334
    4         17          -0.000055100   -0.000095436   -0.000014334
    5         17          -0.000055100    0.000095436   -0.000014334
 -------------------------------------------------------------------
 Cartesian Forces:  Max     0.000110200 RMS     0.000051106
 ------------------------------------------------------------------------
           Internal Coordinate Forces (Hartree/Bohr or radian)
 Cent Atom N1     Length/X     N2     Alpha/Y      N3      Beta/Z       J
 ------------------------------------------------------------------------
   1  C 
   2  H     1   0.000046(   1)
   3  Cl    1   0.000109(   2)  2  -0.000066(   5)
   4  Cl    1   0.000109(   3)  2  -0.000066(   6)  3   0.000000(   8)  0
   5  Cl    1   0.000109(   4)  2  -0.000066(   7)  3   0.000000(   9)  0
 ------------------------------------------------------------------------
 Internal  Forces:  Max     0.000109412 RMS     0.000075257

 GradGradGradGradGradGradGradGradGradGradGradGradGradGradGradGradGradGrad
 Berny optimization.
 Search for a local minimum.
 Step number   1 out of a maximum of   2
 All quantities printed in internal units (Hartrees-Bohrs-Radians)
 Second derivative matrix not updated -- analytic derivatives used.
 The second derivative matrix:
                          ph         a        ch         d
           ph           0.75605
           a           -0.12608   1.55331
           ch           0.01312   0.00028   0.35635
           d            0.00000   0.00000   0.00000   1.11422
     Eigenvalues ---    0.35590   0.73704   1.572781000.00000
 Angle between quadratic step and forces=  19.76 degrees.
 Linear search not attempted -- first point.
 Variable       Old X    -DE/DX   Delta X   Delta X   Delta X     New X
                                 (Linear)    (Quad)   (Total)
    ph        3.37536   0.00033   0.00000   0.00042   0.00042   3.37577
    a         1.87614  -0.00020   0.00000  -0.00009  -0.00009   1.87605
    ch        2.04492   0.00005   0.00000   0.00011   0.00011   2.04503
    d         2.09440   0.00000   0.00000   0.00000   0.00000   2.09440
         Item               Value     Threshold  Converged?
 Maximum Force            0.000328     0.000450     YES
 RMS     Force            0.000223     0.000300     YES
 Maximum Displacement     0.000417     0.001800     YES
 RMS     Displacement     0.000221     0.001200     YES
 Predicted change in Energy=-8.016736D-08
 Optimization completed.
    -- Stationary point found.
                       ----------------------------
                       !   Optimized Parameters   !
                       ! (Angstroms and Degrees)  !
 ----------------------                            ----------------------
 !      Name          Value   Derivative information (Atomic Units)     !
 ------------------------------------------------------------------------
 !       ph          1.7862   -DE/DX =    0.0003                        !
 !        a        107.4951   -DE/DX =   -0.0002                        !
 !       ch          1.0821   -DE/DX =    0.0                           !
 !        d        120.0      -DE/DX =    0.0                           !
 ------------------------------------------------------------------------
 GradGradGradGradGradGradGradGradGradGradGradGradGradGradGradGradGradGrad


 Test job not archived.
 1\1\GINC-CLUSTER-BIO\Freq\RB3LYP\6-311+G(d,p)\C1H1Cl3\CHAQUIN\18-Mar-2
 012\1\\# B3LYP 6-311+G** GEOM=CHECKPOINT FREQ POP=NONE TEST\\*** Vibra
 tions NH3 **** 0 1\\0,1\C\H,1,ch\Cl,1,ph,2,a\Cl,1,ph,2,a,3,d,0\Cl,1,ph
 ,2,a,3,-d,0\\ph=1.78616235\a=107.49514587\ch=1.08212278\d=120.\\Versio
 n=AM64L-G03RevC.02\State=1-A1\HF=-1419.3796665\RMSD=3.516e-09\RMSF=5.1
 11e-05\Dipole=0.,0.,0.4705757\DipoleDeriv=1.5063731,0.,0.000033,0.,1.5
 063603,0.,-0.0001114,0.,0.2190932,-0.0790525,0.,-0.0000166,0.,-0.07909
 49,0.,0.0000127,0.,0.0308229,-0.7935997,0.,0.0532859,0.,-0.1575759,0.,
 0.1689356,0.,-0.083288,-0.3167212,-0.2754756,-0.026647,-0.2753517,-0.6
 347193,-0.0461415,-0.0844431,-0.1462696,-0.083301,-0.3167212,0.2754756
 ,-0.026647,0.2753516,-0.6347192,0.0461415,-0.0844431,0.1462696,-0.0833
 01\Polar=55.3566743,-0.0000004,55.3178947,0.0001646,0.,35.6334685\PG=C
 03V [C3(C1H1),3SGV(Cl1)]\NImag=0\\0.23046078,0.,0.23046844,0.00000074,
 0.,0.51912491,-0.03458370,0.,-0.00000046,0.05607157,0.,-0.03458019,0.,
 0.,0.05607077,-0.00000108,0.,-0.35232200,0.00000022,0.,0.35634673,-0.0
 9939226,0.,0.04486729,-0.01848833,0.,0.00416420,0.17654068,0.,-0.03119
 171,0.,0.,0.00416213,0.,0.,0.03580053,0.02666410,0.,-0.05560093,0.0282
 5155,0.,-0.00134154,-0.04900098,0.,0.04247648,-0.04824213,-0.02953472,
 -0.02243371,-0.00150013,-0.00980834,-0.00208189,-0.02933208,-0.0232263
 1,-0.00295732,0.07098557,-0.02953291,-0.08234520,-0.03885626,-0.009807
 50,-0.01282603,-0.00360597,-0.01998600,-0.00438344,0.00172529,0.060942
 27,0.14135564,-0.01333196,-0.02309245,-0.05560096,-0.01412571,-0.02446
 697,-0.00134157,-0.00001549,0.00342377,0.00723299,0.02450049,0.0424361
 0,0.04247648,-0.04824213,0.02953472,-0.02243371,-0.00150013,0.00980834
 ,-0.00208189,-0.02933208,0.02322631,-0.00295732,0.00809087,-0.00162015
 ,0.00297281,0.07098557,0.02953291,-0.08234520,0.03885626,0.00980750,-0
 .01282603,0.00360597,0.01998600,-0.00438344,-0.00172530,0.00162015,-0.
 04180640,0.00169847,-0.06094227,0.14135564,-0.01333196,0.02309245,-0.0
 5560096,-0.01412571,0.02446697,-0.00134157,-0.00001549,-0.00342377,0.0
 0723299,0.00297281,-0.00169847,0.00723299,0.02450049,-0.04243610,0.042
 47648\\0.,0.,0.00000303,0.,0.,-0.00004603,-0.00011020,0.,0.00001433,0.
 00005510,0.00009544,0.00001433,0.00005510,-0.00009544,0.00001433\\\@


 THE ... SCIENTISTS WERE WRONG ... THE MOST PERSISTENT PRINCIPLES 
 OF THE UNIVERSE WERE ACCIDENT AND ERROR.

                          -- FRANK HERBERT IN DUNE
 Job cpu time:  0 days  0 hours  2 minutes 35.4 seconds.
 File lengths (MBytes):  RWF=     23 Int=      0 D2E=      0 Chk=     13 Scr=      1
 Normal termination of Gaussian 03 at Sun Mar 18 11:20:46 2012.
240.58user 5.21system 4:06.02elapsed 99%CPU (0avgtext+0avgdata 0maxresident)k
0inputs+0outputs (9major+1990443minor)pagefaults 0swaps
