[Molden Format]
[Atoms] Angs
 C     1  6     0.000000     0.000000    -0.662370
 C     2  6     0.000000     0.000000     0.662370
 H     3  1     0.892024     0.000000    -1.271898
 H     4  1    -0.892024     0.000000     1.271898
Cl     5 17    -1.486205     0.000000    -1.575057
Cl     6 17     1.486205     0.000000     1.575057
[FREQ]
  212.1047
  237.9103
  348.4450
  793.3262
  803.1429
  843.1984
  928.8631
 1225.3837
 1303.8071
 1643.5410
 3222.6626
 3225.8129
[INT]
    0.1436
    3.2896
    0.0000
    0.0000
  146.5608
    0.0000
   72.6185
   19.5455
    0.0000
    0.0000
   15.8205
    0.0000
[FR-COORD]
 C     0.000000     0.000000    -1.251698
 C     0.000000     0.000000     1.251698
 H     1.685681     0.000000    -2.403539
 H    -1.685681     0.000000     2.403539
Cl    -2.808520     0.000000    -2.976426
Cl     2.808520     0.000000     2.976426
[FR-NORM-COORD]
vibration     1
    0.000000     0.000000     0.480000
    0.000000     0.000000     0.480000
    0.000000     0.000000     0.480000
    0.000000     0.000000     0.480000
    0.000000     0.000000    -0.180000
    0.000000     0.000000    -0.180000
vibration     2
    0.390000    -0.150000     0.000000
    0.390000    -0.150000     0.000000
    0.390000    -0.390000     0.000000
    0.390000    -0.390000     0.000000
   -0.140000     0.060000     0.000000
   -0.140000     0.060000     0.000000
vibration     3
    0.170000     0.150000     0.000000
   -0.170000    -0.150000     0.000000
    0.170000     0.390000     0.000000
   -0.170000    -0.390000     0.000000
    0.060000     0.510000     0.000000
   -0.060000    -0.510000     0.000000
vibration     4
    0.000000     0.000000    -0.190000
    0.000000     0.000000     0.190000
    0.000000     0.000000     0.680000
    0.000000     0.000000    -0.680000
    0.000000     0.000000     0.010000
    0.000000     0.000000    -0.010000
vibration     5
    0.210000     0.500000     0.000000
    0.210000     0.500000     0.000000
    0.210000     0.350000     0.000000
    0.210000     0.350000     0.000000
   -0.080000    -0.180000     0.000000
   -0.080000    -0.180000     0.000000
vibration     6
    0.320000     0.210000     0.000000
   -0.320000    -0.210000     0.000000
    0.320000     0.500000     0.000000
   -0.320000    -0.500000     0.000000
   -0.060000    -0.060000     0.000000
    0.060000     0.060000     0.000000
vibration     7
    0.000000     0.000000    -0.060000
    0.000000     0.000000    -0.060000
    0.000000     0.000000     0.700000
    0.000000     0.000000     0.700000
    0.000000     0.000000     0.000000
    0.000000     0.000000     0.000000
vibration     8
    0.020000    -0.060000     0.000000
    0.020000    -0.060000     0.000000
    0.050000     0.700000     0.000000
    0.050000     0.700000     0.000000
   -0.010000     0.000000     0.000000
   -0.010000     0.000000     0.000000
vibration     9
   -0.090000    -0.010000     0.000000
    0.090000     0.010000     0.000000
   -0.070000     0.700000     0.000000
    0.070000    -0.700000     0.000000
   -0.010000     0.000000     0.000000
    0.010000     0.000000     0.000000
vibration    10
   -0.230000     0.460000     0.000000
    0.230000    -0.460000     0.000000
   -0.350000    -0.340000     0.000000
    0.350000     0.340000     0.000000
    0.000000    -0.010000     0.000000
    0.000000     0.010000     0.000000
vibration    11
   -0.060000     0.000000     0.000000
   -0.060000     0.000000     0.000000
    0.700000    -0.020000     0.000000
    0.700000    -0.020000     0.000000
    0.000000     0.000000     0.000000
    0.000000     0.000000     0.000000
vibration    12
   -0.060000     0.010000     0.000000
    0.060000    -0.010000     0.000000
    0.700000    -0.020000     0.000000
   -0.700000     0.020000     0.000000
    0.000000     0.000000     0.000000
    0.000000     0.000000     0.000000
