 Entering Gaussian System, Link 0=/usr/local/g03/g03
 Initial command:
 /usr/local/g03/l1.exe /home/chaquin/ENSEIGNEMENT/Gau-14728.inp -scrdir=/home/chaquin/ENSEIGNEMENT/
 Entering Link 1 = /usr/local/g03/l1.exe PID=     14733.
  
 Copyright (c) 1988,1990,1992,1993,1995,1998,2003,2004, Gaussian, Inc.
                  All Rights Reserved.
  
 This is the Gaussian(R) 03 program.  It is based on the
 the Gaussian(R) 98 system (copyright 1998, Gaussian, Inc.),
 the Gaussian(R) 94 system (copyright 1995, Gaussian, Inc.),
 the Gaussian 92(TM) system (copyright 1992, Gaussian, Inc.),
 the Gaussian 90(TM) system (copyright 1990, Gaussian, Inc.),
 the Gaussian 88(TM) system (copyright 1988, Gaussian, Inc.),
 the Gaussian 86(TM) system (copyright 1986, Carnegie Mellon
 University), and the Gaussian 82(TM) system (copyright 1983,
 Carnegie Mellon University). Gaussian is a federally registered
 trademark of Gaussian, Inc.
  
 This software contains proprietary and confidential information,
 including trade secrets, belonging to Gaussian, Inc.
  
 This software is provided under written license and may be
 used, copied, transmitted, or stored only in accord with that
 written license.
  
 The following legend is applicable only to US Government
 contracts under FAR:
  
                    RESTRICTED RIGHTS LEGEND
  
 Use, reproduction and disclosure by the US Government is
 subject to restrictions as set forth in subparagraphs (a)
 and (c) of the Commercial Computer Software - Restricted
 Rights clause in FAR 52.227-19.
  
 Gaussian, Inc.
 340 Quinnipiac St., Bldg. 40, Wallingford CT 06492
  
  
 ---------------------------------------------------------------
 Warning -- This program may not be used in any manner that
 competes with the business of Gaussian, Inc. or will provide
 assistance to any competitor of Gaussian, Inc.  The licensee
 of this program is prohibited from giving any competitor of
 Gaussian, Inc. access to this program.  By using this program,
 the user acknowledges that Gaussian, Inc. is engaged in the
 business of creating and licensing software in the field of
 computational chemistry and represents and warrants to the
 licensee that it is not a competitor of Gaussian, Inc. and that
 it will not use this program in any manner prohibited above.
 ---------------------------------------------------------------
  

 Cite this work as:
 Gaussian 03, Revision C.02,
 M. J. Frisch, G. W. Trucks, H. B. Schlegel, G. E. Scuseria, 
 M. A. Robb, J. R. Cheeseman, J. A. Montgomery, Jr., T. Vreven, 
 K. N. Kudin, J. C. Burant, J. M. Millam, S. S. Iyengar, J. Tomasi, 
 V. Barone, B. Mennucci, M. Cossi, G. Scalmani, N. Rega, 
 G. A. Petersson, H. Nakatsuji, M. Hada, M. Ehara, K. Toyota, 
 R. Fukuda, J. Hasegawa, M. Ishida, T. Nakajima, Y. Honda, O. Kitao, 
 H. Nakai, M. Klene, X. Li, J. E. Knox, H. P. Hratchian, J. B. Cross, 
 C. Adamo, J. Jaramillo, R. Gomperts, R. E. Stratmann, O. Yazyev, 
 A. J. Austin, R. Cammi, C. Pomelli, J. W. Ochterski, P. Y. Ayala, 
 K. Morokuma, G. A. Voth, P. Salvador, J. J. Dannenberg, 
 V. G. Zakrzewski, S. Dapprich, A. D. Daniels, M. C. Strain, 
 O. Farkas, D. K. Malick, A. D. Rabuck, K. Raghavachari, 
 J. B. Foresman, J. V. Ortiz, Q. Cui, A. G. Baboul, S. Clifford, 
 J. Cioslowski, B. B. Stefanov, G. Liu, A. Liashenko, P. Piskorz, 
 I. Komaromi, R. L. Martin, D. J. Fox, T. Keith, M. A. Al-Laham, 
 C. Y. Peng, A. Nanayakkara, M. Challacombe, P. M. W. Gill, 
 B. Johnson, W. Chen, M. W. Wong, C. Gonzalez, and J. A. Pople, 
 Gaussian, Inc., Wallingford CT, 2004.
 
 ******************************************
 Gaussian 03:  AM64L-G03RevC.02 12-Jun-2004
                 1-Apr-2012 
 ******************************************
 %chk=geom
 ----------------------------------------------------
 # B3LYP 6-311+G** geom=checkpoint freq pop=none test
 ----------------------------------------------------
 1/10=4,29=2,30=1,38=1/1,3;
 2/40=1/2;
 3/5=4,6=6,7=111,11=2,16=1,25=1,30=1,74=-5/1,2,3;
 4//1;
 5/5=2,38=5/2;
 8/6=4,10=90,11=11/1;
 11/6=1,8=1,9=11,15=111,16=1/1,2,10;
 10/6=1/2;
 7/8=1,10=1,25=1/1,2,3,16;
 1/10=4,30=1/3;
 99//99;
 ---------------------------
 *** Vibrations NH3 **** 0 1
 ---------------------------
 Z-Matrix taken from the checkpoint file:
 geom.chk
 Charge =  0 Multiplicity = 1
 C
 C,1,cc
 H,1,ch,2,a
 H,2,ch,1,a,3,d1,0
 Cl,1,ccl,2,a1,4,d,0
 Cl,2,ccl,1,a1,5,d1,0
      Variables:
 cc=1.32766858
 ccl=1.73331302
 ch=1.08128116
 a=120.66471528
 a1=125.38087738
 d=180.
 d1=0.
 Recover connectivity data from disk.

 GradGradGradGradGradGradGradGradGradGradGradGradGradGradGradGradGradGrad
 Berny optimization.
 Initialization pass.
                       ----------------------------
                       !    Initial Parameters    !
                       ! (Angstroms and Degrees)  !
 ----------------------                            ----------------------
 !      Name          Value   Derivative information (Atomic Units)     !
 ------------------------------------------------------------------------
 !       cc          1.3277   calculate D2E/DX2 analytically            !
 !       ccl         1.7333   calculate D2E/DX2 analytically            !
 !       ch          1.0813   calculate D2E/DX2 analytically            !
 !        a        120.6647   calculate D2E/DX2 analytically            !
 !       a1        125.3809   calculate D2E/DX2 analytically            !
 !        d        180.0      calculate D2E/DX2 analytically            !
 !       d1          0.0      calculate D2E/DX2 analytically            !
 ------------------------------------------------------------------------
 Trust Radius=3.00D-01 FncErr=1.00D-07 GrdErr=1.00D-07
 Number of steps in this run=   2 maximum allowed number of steps=   2.
 GradGradGradGradGradGradGradGradGradGradGradGradGradGradGradGradGradGrad

                          Input orientation:                          
 ---------------------------------------------------------------------
 Center     Atomic     Atomic              Coordinates (Angstroms)
 Number     Number      Type              X           Y           Z
 ---------------------------------------------------------------------
    1          6             0        0.962268    0.000000   -0.663834
    2          6             0        0.962268    0.000000    0.663834
    3          1             0        1.892350    0.000000   -1.215302
    4          1             0        1.892350    0.000000    1.215302
    5         17             0       -0.450939    0.000000   -1.667438
    6         17             0       -0.450939    0.000000    1.667438
 ---------------------------------------------------------------------
                    Distance matrix (angstroms):
                    1          2          3          4          5
     1  C    0.000000
     2  C    1.327669   0.000000
     3  H    1.081281   2.096713   0.000000
     4  H    2.096713   1.081281   2.430604   0.000000
     5  Cl   1.733313   2.726167   2.386510   3.714996   0.000000
     6  Cl   2.726167   1.733313   3.714996   2.386510   3.334877
                    6
     6  Cl   0.000000
 Stoichiometry    C2H2Cl2
 Framework group  C2V[SGV(C2H2Cl2)]
 Deg. of freedom     5
 Full point group                 C2V     NOp   4
 Largest Abelian subgroup         C2V     NOp   4
 Largest concise Abelian subgroup C2      NOp   2
                         Standard orientation:                         
 ---------------------------------------------------------------------
 Center     Atomic     Atomic              Coordinates (Angstroms)
 Number     Number      Type              X           Y           Z
 ---------------------------------------------------------------------
    1          6             0        0.000000    0.663834    0.962268
    2          6             0        0.000000   -0.663834    0.962268
    3          1             0        0.000000    1.215302    1.892350
    4          1             0        0.000000   -1.215302    1.892350
    5         17             0        0.000000    1.667438   -0.450939
    6         17             0        0.000000   -1.667438   -0.450939
 ---------------------------------------------------------------------
 Rotational constants (GHZ):     11.6341476      2.4296532      2.0099079
 Standard basis: 6-311+G(d,p) (5D, 7F)
 There are    43 symmetry adapted basis functions of A1  symmetry.
 There are    15 symmetry adapted basis functions of A2  symmetry.
 There are    15 symmetry adapted basis functions of B1  symmetry.
 There are    43 symmetry adapted basis functions of B2  symmetry.
 Integral buffers will be    131072 words long.
 Raffenetti 2 integral format.
 Two-electron integral symmetry is turned on.
   116 basis functions,   194 primitive gaussians,   120 cartesian basis functions
    24 alpha electrons       24 beta electrons
       nuclear repulsion energy       183.5877499229 Hartrees.
 NAtoms=    6 NActive=    6 NUniq=    3 SFac= 5.66D+00 NAtFMM=   60 Big=F
 One-electron integrals computed using PRISM.
 NBasis=   116 RedAO= T  NBF=    43    15    15    43
 NBsUse=   116 1.00D-06 NBFU=    43    15    15    43
 Harris functional with IExCor=  402 diagonalized for initial guess.
 ExpMin= 4.38D-02 ExpMax= 1.06D+05 ExpMxC= 3.62D+03 IAcc=2 IRadAn=         4 AccDes= 0.00D+00
 HarFok:  IExCor= 402 AccDes= 0.00D+00 IRadAn=         4 IDoV=1
 ScaDFX=  1.000000  1.000000  1.000000  1.000000
 Initial guess orbital symmetries:
       Occupied  (B2) (A1) (A1) (B2) (B2) (A1) (B2) (A1) (B2) (A1)
                 (A2) (B1) (A1) (B2) (A1) (B2) (A1) (A1) (B2) (B1)
                 (A2) (A1) (B2) (B1)
       Virtual   (A2) (A1) (B2) (A1) (A1) (B2) (B1) (A1) (A1) (B2)
                 (A2) (B1) (A1) (B2) (A1) (B2) (A2) (B2) (A1) (B2)
                 (B2) (B2) (A1) (A1) (A1) (B2) (B1) (A1) (A2) (B2)
                 (B1) (B2) (A1) (A2) (B2) (A1) (B1) (B2) (A2) (B2)
                 (B1) (A1) (A2) (B2) (A1) (B2) (B1) (A1) (A1) (B2)
                 (B2) (B1) (A2) (A1) (A1) (B2) (A1) (B1) (B2) (A2)
                 (A1) (A2) (B2) (B2) (B1) (A2) (A1) (A1) (B2) (A1)
                 (B2) (A1) (B1) (B2) (B2) (A2) (A1) (B2) (A1) (B2)
                 (A1) (B2) (A1) (B2) (B1) (A2) (A1) (B2) (A1) (B2)
                 (A1) (B2)
 The electronic state of the initial guess is 1-A1.
 Requested convergence on RMS density matrix=1.00D-08 within 128 cycles.
 Requested convergence on MAX density matrix=1.00D-06.
 Requested convergence on             energy=1.00D-06.
 No special actions if energy rises.
 SCF Done:  E(RB+HF-LYP) =  -997.859721742     A.U. after   11 cycles
             Convg  =    0.6578D-09             -V/T =  2.0025
             S**2   =   0.0000
 Range of M.O.s used for correlation:     1   116
 NBasis=   116 NAE=    24 NBE=    24 NFC=     0 NFV=     0
 NROrb=    116 NOA=    24 NOB=    24 NVA=    92 NVB=    92

 **** Warning!!: The largest alpha MO coefficient is  0.70267719D+02

 Symmetrizing basis deriv contribution to polar:
 IMax=3 JMax=2 DiffMx= 0.00D+00
 G2DrvN: will do    7 centers at a time, making    1 passes doing MaxLOS=2.
 FoFDir/FoFCou used for L=0 through L=2.
 DoAtom=TTTTTT
          Differentiating once with respect to electric field.
                with respect to dipole field.
          Differentiating once with respect to nuclear coordinates.
 Integrals replicated using symmetry in FoFDir.
 MinBra= 0 MaxBra= 2 Meth= 1.
 IRaf=       0 NMat=  12 IRICut=      12 DoRegI=T DoRafI=T ISym2E= 2 JSym2E=2.
          There are  12 degrees of freedom in the 1st order CPHF.
    12 vectors were produced by pass  0.
 AX will form  12 AO Fock derivatives at one time.
    12 vectors were produced by pass  1.
    12 vectors were produced by pass  2.
    12 vectors were produced by pass  3.
    12 vectors were produced by pass  4.
    12 vectors were produced by pass  5.
     8 vectors were produced by pass  6.
     3 vectors were produced by pass  7.
     2 vectors were produced by pass  8.
 Inv2:  IOpt= 1 Iter= 1 AM= 1.06D-15 Conv= 1.00D-12.
 Inverted reduced A of dimension   85 with in-core refinement.
 Isotropic polarizability for W=    0.000000       47.26 Bohr**3.
 End of Minotr Frequency-dependent properties file   721 does not exist.
 Full mass-weighted force constant matrix:
 Low frequencies ---    0.0043    0.0047    0.0049    1.3141    6.0519   15.3722
 Low frequencies ---  168.1911  419.1303  569.9147
 Diagonal vibrational polarizability:
        3.7202518       4.7699926       1.9202073
 Harmonic frequencies (cm**-1), IR intensities (KM/Mole), Raman scattering
 activities (A**4/AMU), depolarization ratios for plane and unpolarized
 incident light, reduced masses (AMU), force constants (mDyne/A),
 and normal coordinates:
                     1                      2                      3
                    A1                     A2                     B2
 Frequencies --   168.1911               419.1302               569.9147
 Red. masses --    26.3408                 3.8456                 9.3527
 Frc consts  --     0.4390                 0.3980                 1.7898
 IR Inten    --     0.2452                 0.0000                 7.3877
 Atom AN      X      Y      Z        X      Y      Z        X      Y      Z
   1   6     0.00   0.01  -0.29     0.34   0.00   0.00     0.00   0.46   0.21
   2   6     0.00  -0.01  -0.29    -0.34   0.00   0.00     0.00   0.46  -0.21
   3   1     0.00  -0.22  -0.15     0.62   0.00   0.00     0.00   0.36   0.27
   4   1     0.00   0.22  -0.15    -0.62   0.00   0.00     0.00   0.36  -0.27
   5  17     0.00   0.58   0.10    -0.06   0.00   0.00     0.00  -0.17   0.11
   6  17     0.00  -0.58   0.10     0.06   0.00   0.00     0.00  -0.17  -0.11
                     4                      5                      6
                    A1                     B1                     B2
 Frequencies --   702.4949               711.5259               845.8856
 Red. masses --     9.0685                 1.2289                 4.5549
 Frc consts  --     2.6368                 0.3665                 1.9202
 IR Inten    --    23.1339                69.9875                98.3837
 Atom AN      X      Y      Z        X      Y      Z        X      Y      Z
   1   6     0.00   0.05   0.48     0.10   0.00   0.00     0.00  -0.07   0.36
   2   6     0.00  -0.05   0.48     0.10   0.00   0.00     0.00  -0.07  -0.36
   3   1     0.00   0.36   0.31    -0.70   0.00   0.00     0.00  -0.32   0.51
   4   1     0.00  -0.36   0.31    -0.70   0.00   0.00     0.00  -0.32  -0.51
   5  17     0.00   0.12  -0.17    -0.01   0.00   0.00     0.00   0.03  -0.09
   6  17     0.00  -0.12  -0.17    -0.01   0.00   0.00     0.00   0.03   0.09
                     7                      8                      9
                    A2                     A1                     B2
 Frequencies --   907.0055              1218.9807              1319.0929
 Red. masses --     1.2516                 1.0450                 1.2183
 Frc consts  --     0.6067                 0.9149                 1.2490
 IR Inten    --     0.0000                 0.0309                27.0188
 Atom AN      X      Y      Z        X      Y      Z        X      Y      Z
   1   6    -0.11   0.00   0.00     0.00   0.03  -0.01     0.00  -0.06   0.08
   2   6     0.11   0.00   0.00     0.00  -0.03  -0.01     0.00  -0.06  -0.08
   3   1     0.70   0.00   0.00     0.00   0.61  -0.36     0.00   0.61  -0.34
   4   1    -0.70   0.00   0.00     0.00  -0.61  -0.36     0.00   0.61   0.34
   5  17     0.00   0.00   0.00     0.00   0.00   0.01     0.00   0.00   0.00
   6  17     0.00   0.00   0.00     0.00   0.00   0.01     0.00   0.00   0.00
                    10                     11                     12
                    A1                     B2                     A1
 Frequencies --  1647.0519              3201.6124              3222.4883
 Red. masses --     7.6107                 1.0848                 1.0998
 Frc consts  --    12.1644                 6.5516                 6.7289
 IR Inten    --    42.4858                15.1418                 1.3258
 Atom AN      X      Y      Z        X      Y      Z        X      Y      Z
   1   6     0.00   0.54  -0.06     0.00  -0.03  -0.05     0.00  -0.04  -0.05
   2   6     0.00  -0.54  -0.06     0.00  -0.03   0.05     0.00   0.04  -0.05
   3   1     0.00  -0.11   0.43     0.00   0.37   0.60     0.00   0.37   0.60
   4   1     0.00   0.11   0.43     0.00   0.37  -0.60     0.00  -0.37   0.60
   5  17     0.00  -0.01   0.01     0.00   0.00   0.00     0.00   0.00   0.00
   6  17     0.00   0.01   0.01     0.00   0.00   0.00     0.00   0.00   0.00

 -------------------
 - Thermochemistry -
 -------------------
 Temperature   298.150 Kelvin.  Pressure   1.00000 Atm.
 Atom  1 has atomic number  6 and mass  12.00000
 Atom  2 has atomic number  6 and mass  12.00000
 Atom  3 has atomic number  1 and mass   1.00783
 Atom  4 has atomic number  1 and mass   1.00783
 Atom  5 has atomic number 17 and mass  34.96885
 Atom  6 has atomic number 17 and mass  34.96885
 Molecular mass:    95.95336 amu.
 Principal axes and moments of inertia in atomic units:
                           1         2         3
     EIGENVALUES --   155.12449 742.79786 897.92235
           X            0.00000   0.00000   1.00000
           Y            1.00000   0.00000   0.00000
           Z            0.00000   1.00000   0.00000
 This molecule is an asymmetric top.
 Rotational symmetry number  2.
 Rotational temperatures (Kelvin)      0.55835     0.11660     0.09646
 Rotational constants (GHZ):          11.63415     2.42965     2.00991
 Zero-point vibrational energy      89321.4 (Joules/Mol)
                                   21.34833 (Kcal/Mol)
 Warning -- explicit consideration of   3 degrees of freedom as
           vibrations may cause significant error
 Vibrational temperatures:    241.99   603.03   819.98  1010.73  1023.73
          (Kelvin)           1217.04  1304.98  1753.84  1897.88  2369.74
                             4606.40  4636.44
 
 Zero-point correction=                           0.034021 (Hartree/Particle)
 Thermal correction to Energy=                    0.038301
 Thermal correction to Enthalpy=                  0.039245
 Thermal correction to Gibbs Free Energy=         0.006373
 Sum of electronic and zero-point Energies=           -997.825701
 Sum of electronic and thermal Energies=              -997.821421
 Sum of electronic and thermal Enthalpies=            -997.820476
 Sum of electronic and thermal Free Energies=         -997.853349
 
                     E (Thermal)             CV                S
                      KCal/Mol        Cal/Mol-Kelvin    Cal/Mol-Kelvin
 Total                   24.034             13.445             69.186
 Electronic               0.000              0.000              0.000
 Translational            0.889              2.981             39.595
 Rotational               0.889              2.981             24.762
 Vibrational             22.257              7.483              4.829
 Vibration  1             0.625              1.882              2.456
 Vibration  2             0.782              1.429              0.895
 Vibration  3             0.926              1.096              0.504
                       Q            Log10(Q)             Ln(Q)
 Total Bot       0.117172D-02         -2.931178         -6.749286
 Total V=0       0.521481D+13         12.717239         29.282524
 Vib (Bot)       0.550891D-15        -15.258934        -35.134995
 Vib (Bot)  1    0.119890D+01          0.078783          0.181405
 Vib (Bot)  2    0.419216D+00         -0.377562         -0.869369
 Vib (Bot)  3    0.270073D+00         -0.568519         -1.309064
 Vib (V=0)       0.245178D+01          0.389482          0.896815
 Vib (V=0)  1    0.179899D+01          0.255028          0.587223
 Vib (V=0)  2    0.115249D+01          0.061637          0.141924
 Vib (V=0)  3    0.106828D+01          0.028684          0.066047
 Electronic      0.100000D+01          0.000000          0.000000
 Translational   0.369441D+08          7.567545         17.424917
 Rotational      0.575720D+05          4.760211         10.960792
 ***** Axes restored to original set *****
 -------------------------------------------------------------------
 Center     Atomic                   Forces (Hartrees/Bohr)
 Number     Number              X              Y              Z
 -------------------------------------------------------------------
    1          6           0.000055161    0.000000000    0.000083592
    2          6           0.000055161    0.000000000   -0.000083592
    3          1          -0.000004328    0.000000000   -0.000000697
    4          1          -0.000004328    0.000000000    0.000000697
    5         17          -0.000050833    0.000000000   -0.000053342
    6         17          -0.000050833    0.000000000    0.000053342
 -------------------------------------------------------------------
 Cartesian Forces:  Max     0.000083592 RMS     0.000041472
 ------------------------------------------------------------------------
           Internal Coordinate Forces (Hartree/Bohr or radian)
 Cent Atom N1     Length/X     N2     Alpha/Y      N3      Beta/Z       J
 ------------------------------------------------------------------------
   1  C 
   2  C     1  -0.000030(   1)
   3  H     1  -0.000003(   2)  2   0.000006(   6)
   4  H     2  -0.000003(   3)  1   0.000006(   7)  3   0.000000(  10)  0
   5  Cl    1   0.000072(   4)  2   0.000046(   8)  4   0.000000(  11)  0
   6  Cl    2   0.000072(   5)  1   0.000046(   9)  5   0.000000(  12)  0
 ------------------------------------------------------------------------
 Internal  Forces:  Max     0.000072331 RMS     0.000036132

 GradGradGradGradGradGradGradGradGradGradGradGradGradGradGradGradGradGrad
 Berny optimization.
 Search for a local minimum.
 Step number   1 out of a maximum of   2
 All quantities printed in internal units (Hartrees-Bohrs-Radians)
 Second derivative matrix not updated -- analytic derivatives used.
 The second derivative matrix:
                          cc        ccl       ch         a        a1
           cc           0.61738
           ccl          0.05398   0.49675
           ch           0.00760   0.00728   0.72680
           a            0.05692  -0.08389   0.01775   0.47967
           a1           0.09625   0.00296  -0.00577   0.29535   0.79329
           d            0.00000   0.00000   0.00000   0.00000   0.00000
           d1           0.00000   0.00000   0.00000   0.00000   0.00000
                           d        d1
           d            0.09788
           d1          -0.09879   0.21757
     Eigenvalues ---    0.04222   0.27323   0.27532   0.48484   0.62117
     Eigenvalues ---    0.72798   1.00458
 Angle between quadratic step and forces=  12.27 degrees.
 Linear search not attempted -- first point.
 Variable       Old X    -DE/DX   Delta X   Delta X   Delta X     New X
                                 (Linear)    (Quad)   (Total)
    cc        2.50893  -0.00003   0.00000  -0.00009  -0.00009   2.50884
   ccl        3.27549   0.00014   0.00000   0.00030   0.00030   3.27579
    ch        2.04333  -0.00001   0.00000  -0.00001  -0.00001   2.04331
    a         2.10600   0.00001   0.00000   0.00001   0.00001   2.10601
    a1        2.18831   0.00009   0.00000   0.00012   0.00012   2.18843
    d         3.14159   0.00000   0.00000   0.00000   0.00000   3.14159
    d1        0.00000   0.00000   0.00000   0.00000   0.00000   0.00000
         Item               Value     Threshold  Converged?
 Maximum Force            0.000145     0.000450     YES
 RMS     Force            0.000066     0.000300     YES
 Maximum Displacement     0.000303     0.001800     YES
 RMS     Displacement     0.000129     0.001200     YES
 Predicted change in Energy=-2.902542D-08
 Optimization completed.
    -- Stationary point found.
                       ----------------------------
                       !   Optimized Parameters   !
                       ! (Angstroms and Degrees)  !
 ----------------------                            ----------------------
 !      Name          Value   Derivative information (Atomic Units)     !
 ------------------------------------------------------------------------
 !       cc          1.3277   -DE/DX =    0.0                           !
 !       ccl         1.7333   -DE/DX =    0.0001                        !
 !       ch          1.0813   -DE/DX =    0.0                           !
 !        a        120.6647   -DE/DX =    0.0                           !
 !       a1        125.3809   -DE/DX =    0.0001                        !
 !        d        180.0      -DE/DX =    0.0                           !
 !       d1          0.0      -DE/DX =    0.0                           !
 ------------------------------------------------------------------------
 GradGradGradGradGradGradGradGradGradGradGradGradGradGradGradGradGradGrad


 Test job not archived.
 1\1\GINC-CLUSTER-BIO\Freq\RB3LYP\6-311+G(d,p)\C2H2Cl2\CHAQUIN\01-Apr-2
 012\1\\# B3LYP 6-311+G** GEOM=CHECKPOINT FREQ POP=NONE TEST\\*** Vibra
 tions NH3 **** 0 1\\0,1\C\C,1,cc\H,1,ch,2,a\H,2,ch,1,a,3,d1,0\Cl,1,ccl
 ,2,a1,4,d,0\Cl,2,ccl,1,a1,5,d1,0\\cc=1.32766858\ccl=1.73331302\ch=1.08
 128116\a=120.66471528\a1=125.38087738\d=180.\d1=0.\\Version=AM64L-G03R
 evC.02\State=1-A1\HF=-997.8597217\RMSD=6.578e-10\RMSF=4.147e-05\Dipole
 =0.7677626,0.,0.\DipoleDeriv=0.3802877,0.,0.7926242,0.,-0.1694958,0.,0
 .4477537,0.,0.3561661,0.3802877,0.,-0.7926242,0.,-0.1694958,0.,-0.4477
 537,0.,0.3561661,-0.0359441,0.,-0.0534025,0.,0.1888516,0.,-0.0110245,0
 .,0.012184,-0.0359441,0.,0.0534025,0.,0.1888515,0.,0.0110245,0.,0.0121
 84,-0.3443436,0.,-0.4737312,0.,-0.0193557,0.,-0.1798515,0.,-0.3683502,
 -0.3443436,0.,0.4737312,0.,-0.0193557,0.,0.1798515,0.,-0.3683502\Polar
 =47.1487229,0.,29.6096865,-0.0000004,0.,65.0239612\PG=C02V [SGV(C2H2Cl
 2)]\NImag=0\\0.50382996,0.,0.09050848,-0.08975908,0.,0.78683917,-0.082
 85294,0.,-0.00295168,0.50382996,0.,-0.04767558,0.,0.,0.09050848,0.0029
 5168,0.,-0.54283522,0.08975908,0.,0.78683917,-0.26425641,0.,0.14051135
 ,0.00229814,0.,-0.00155195,0.27921440,0.,-0.03061122,0.,0.,0.00485465,
 0.,0.,0.02077790,0.13534982,0.,-0.12921681,0.02456719,0.,-0.01025316,-
 0.13617412,0.,0.14089842,0.00229814,0.,0.00155195,-0.26425641,0.,-0.14
 051135,0.00078848,0.,-0.00013128,0.27921440,0.,0.00485465,0.,0.,-0.030
 61122,0.,0.,-0.00525453,0.,0.,0.02077790,-0.02456719,0.,-0.01025316,-0
 .13534982,0.,-0.12921681,0.00013128,0.,0.00005780,0.13617412,0.,0.1408
 9842,-0.14021755,0.,-0.06348288,-0.01880119,0.,-0.01413035,-0.02073672
 ,0.,-0.02416827,0.00269212,0.,-0.00055667,0.17147922,0.,-0.02314339,0.
 ,0.,0.00606706,0.,0.,0.00268621,0.,0.,0.00754698,0.,0.,0.01104512,-0.0
 6292622,0.,-0.08177002,-0.03895100,0.,-0.02276396,-0.00049994,0.,0.002
 23630,0.00241662,0.,-0.00372255,0.10114935,0.,0.10714015,-0.01880119,0
 .,0.01413035,-0.14021755,0.,0.06348288,0.00269212,0.,0.00055667,-0.020
 73672,0.,0.02416827,0.00558413,0.,-0.00118882,0.17147922,0.,0.00606706
 ,0.,0.,-0.02314339,0.,0.,0.00754698,0.,0.,0.00268621,0.,0.,-0.00420198
 ,0.,0.,0.01104512,0.03895100,0.,-0.02276396,0.06292622,0.,-0.08177002,
 -0.00241662,0.,-0.00372255,0.00049994,0.,0.00223630,0.00118882,0.,-0.0
 0111992,-0.10114935,0.,0.10714015\\-0.00005516,0.,-0.00008359,-0.00005
 516,0.,0.00008359,0.00000433,0.,0.00000070,0.00000433,0.,-0.00000070,0
 .00005083,0.,0.00005334,0.00005083,0.,-0.00005334\\\@


 MOST BUREAUCRACIES FUNCTION LIKE A SEPTIC TANK.
 THE LARGE CHUNKS RISE TO THE TOP.
 Job cpu time:  0 days  0 hours  2 minutes 42.5 seconds.
 File lengths (MBytes):  RWF=     22 Int=      0 D2E=      0 Chk=     10 Scr=      1
 Normal termination of Gaussian 03 at Sun Apr  1 15:21:30 2012.
267.55user 4.99system 4:32.64elapsed 99%CPU (0avgtext+0avgdata 0maxresident)k
0inputs+0outputs (0major+1737382minor)pagefaults 0swaps
