[Molden Format]
[Atoms] Angs
 C     1  6     0.962268     0.000000    -0.663834
 C     2  6     0.962268     0.000000     0.663834
 H     3  1     1.892350     0.000000    -1.215302
 H     4  1     1.892350     0.000000     1.215302
Cl     5 17    -0.450939     0.000000    -1.667438
Cl     6 17    -0.450939     0.000000     1.667438
[FREQ]
  168.1911
  419.1302
  569.9147
  702.4949
  711.5259
  845.8856
  907.0055
 1218.9807
 1319.0929
 1647.0519
 3201.6124
 3222.4883
[INT]
    0.2452
    0.0000
    7.3877
   23.1339
   69.9875
   98.3837
    0.0000
    0.0309
   27.0188
   42.4858
   15.1418
    1.3258
[FR-COORD]
 C     1.818423     0.000000    -1.254464
 C     1.818423     0.000000     1.254464
 H     3.576023     0.000000    -2.296588
 H     3.576023     0.000000     2.296588
Cl    -0.852151     0.000000    -3.151001
Cl    -0.852151     0.000000     3.151001
[FR-NORM-COORD]
vibration     1
    0.000000     0.010000    -0.290000
    0.000000    -0.010000    -0.290000
    0.000000    -0.220000    -0.150000
    0.000000     0.220000    -0.150000
    0.000000     0.580000     0.100000
    0.000000    -0.580000     0.100000
vibration     2
    0.340000     0.000000     0.000000
   -0.340000     0.000000     0.000000
    0.620000     0.000000     0.000000
   -0.620000     0.000000     0.000000
   -0.060000     0.000000     0.000000
    0.060000     0.000000     0.000000
vibration     3
    0.000000     0.460000     0.210000
    0.000000     0.460000    -0.210000
    0.000000     0.360000     0.270000
    0.000000     0.360000    -0.270000
    0.000000    -0.170000     0.110000
    0.000000    -0.170000    -0.110000
vibration     4
    0.000000     0.050000     0.480000
    0.000000    -0.050000     0.480000
    0.000000     0.360000     0.310000
    0.000000    -0.360000     0.310000
    0.000000     0.120000    -0.170000
    0.000000    -0.120000    -0.170000
vibration     5
    0.100000     0.000000     0.000000
    0.100000     0.000000     0.000000
   -0.700000     0.000000     0.000000
   -0.700000     0.000000     0.000000
   -0.010000     0.000000     0.000000
   -0.010000     0.000000     0.000000
vibration     6
    0.000000    -0.070000     0.360000
    0.000000    -0.070000    -0.360000
    0.000000    -0.320000     0.510000
    0.000000    -0.320000    -0.510000
    0.000000     0.030000    -0.090000
    0.000000     0.030000     0.090000
vibration     7
   -0.110000     0.000000     0.000000
    0.110000     0.000000     0.000000
    0.700000     0.000000     0.000000
   -0.700000     0.000000     0.000000
    0.000000     0.000000     0.000000
    0.000000     0.000000     0.000000
vibration     8
    0.000000     0.030000    -0.010000
    0.000000    -0.030000    -0.010000
    0.000000     0.610000    -0.360000
    0.000000    -0.610000    -0.360000
    0.000000     0.000000     0.010000
    0.000000     0.000000     0.010000
vibration     9
    0.000000    -0.060000     0.080000
    0.000000    -0.060000    -0.080000
    0.000000     0.610000    -0.340000
    0.000000     0.610000     0.340000
    0.000000     0.000000     0.000000
    0.000000     0.000000     0.000000
vibration    10
    0.000000     0.540000    -0.060000
    0.000000    -0.540000    -0.060000
    0.000000    -0.110000     0.430000
    0.000000     0.110000     0.430000
    0.000000    -0.010000     0.010000
    0.000000     0.010000     0.010000
vibration    11
    0.000000    -0.030000    -0.050000
    0.000000    -0.030000     0.050000
    0.000000     0.370000     0.600000
    0.000000     0.370000    -0.600000
    0.000000     0.000000     0.000000
    0.000000     0.000000     0.000000
vibration    12
    0.000000    -0.040000    -0.050000
    0.000000     0.040000    -0.050000
    0.000000     0.370000     0.600000
    0.000000    -0.370000     0.600000
    0.000000     0.000000     0.000000
    0.000000     0.000000     0.000000
