 Entering Gaussian System, Link 0=/usr/local/g03/g03
 Initial command:
 /usr/local/g03/l1.exe /home/chaquin/ENSEIGNEMENT/Gau-4489.inp -scrdir=/home/chaquin/ENSEIGNEMENT/
 Entering Link 1 = /usr/local/g03/l1.exe PID=      4494.
  
 Copyright (c) 1988,1990,1992,1993,1995,1998,2003,2004, Gaussian, Inc.
                  All Rights Reserved.
  
 This is the Gaussian(R) 03 program.  It is based on the
 the Gaussian(R) 98 system (copyright 1998, Gaussian, Inc.),
 the Gaussian(R) 94 system (copyright 1995, Gaussian, Inc.),
 the Gaussian 92(TM) system (copyright 1992, Gaussian, Inc.),
 the Gaussian 90(TM) system (copyright 1990, Gaussian, Inc.),
 the Gaussian 88(TM) system (copyright 1988, Gaussian, Inc.),
 the Gaussian 86(TM) system (copyright 1986, Carnegie Mellon
 University), and the Gaussian 82(TM) system (copyright 1983,
 Carnegie Mellon University). Gaussian is a federally registered
 trademark of Gaussian, Inc.
  
 This software contains proprietary and confidential information,
 including trade secrets, belonging to Gaussian, Inc.
  
 This software is provided under written license and may be
 used, copied, transmitted, or stored only in accord with that
 written license.
  
 The following legend is applicable only to US Government
 contracts under FAR:
  
                    RESTRICTED RIGHTS LEGEND
  
 Use, reproduction and disclosure by the US Government is
 subject to restrictions as set forth in subparagraphs (a)
 and (c) of the Commercial Computer Software - Restricted
 Rights clause in FAR 52.227-19.
  
 Gaussian, Inc.
 340 Quinnipiac St., Bldg. 40, Wallingford CT 06492
  
  
 ---------------------------------------------------------------
 Warning -- This program may not be used in any manner that
 competes with the business of Gaussian, Inc. or will provide
 assistance to any competitor of Gaussian, Inc.  The licensee
 of this program is prohibited from giving any competitor of
 Gaussian, Inc. access to this program.  By using this program,
 the user acknowledges that Gaussian, Inc. is engaged in the
 business of creating and licensing software in the field of
 computational chemistry and represents and warrants to the
 licensee that it is not a competitor of Gaussian, Inc. and that
 it will not use this program in any manner prohibited above.
 ---------------------------------------------------------------
  

 Cite this work as:
 Gaussian 03, Revision C.02,
 M. J. Frisch, G. W. Trucks, H. B. Schlegel, G. E. Scuseria, 
 M. A. Robb, J. R. Cheeseman, J. A. Montgomery, Jr., T. Vreven, 
 K. N. Kudin, J. C. Burant, J. M. Millam, S. S. Iyengar, J. Tomasi, 
 V. Barone, B. Mennucci, M. Cossi, G. Scalmani, N. Rega, 
 G. A. Petersson, H. Nakatsuji, M. Hada, M. Ehara, K. Toyota, 
 R. Fukuda, J. Hasegawa, M. Ishida, T. Nakajima, Y. Honda, O. Kitao, 
 H. Nakai, M. Klene, X. Li, J. E. Knox, H. P. Hratchian, J. B. Cross, 
 C. Adamo, J. Jaramillo, R. Gomperts, R. E. Stratmann, O. Yazyev, 
 A. J. Austin, R. Cammi, C. Pomelli, J. W. Ochterski, P. Y. Ayala, 
 K. Morokuma, G. A. Voth, P. Salvador, J. J. Dannenberg, 
 V. G. Zakrzewski, S. Dapprich, A. D. Daniels, M. C. Strain, 
 O. Farkas, D. K. Malick, A. D. Rabuck, K. Raghavachari, 
 J. B. Foresman, J. V. Ortiz, Q. Cui, A. G. Baboul, S. Clifford, 
 J. Cioslowski, B. B. Stefanov, G. Liu, A. Liashenko, P. Piskorz, 
 I. Komaromi, R. L. Martin, D. J. Fox, T. Keith, M. A. Al-Laham, 
 C. Y. Peng, A. Nanayakkara, M. Challacombe, P. M. W. Gill, 
 B. Johnson, W. Chen, M. W. Wong, C. Gonzalez, and J. A. Pople, 
 Gaussian, Inc., Wallingford CT, 2004.
 
 ******************************************
 Gaussian 03:  AM64L-G03RevC.02 12-Jun-2004
                18-Mar-2012 
 ******************************************
 %chk=geom
 ----------------------------------------------------
 # B3LYP 6-311+G** geom=checkpoint freq pop=none test
 ----------------------------------------------------
 1/10=4,29=2,30=1,38=1/1,3;
 2/40=1/2;
 3/5=4,6=6,7=111,11=2,16=1,25=1,30=1,74=-5/1,2,3;
 4//1;
 5/5=2,38=5/2;
 8/6=4,10=90,11=11/1;
 11/6=1,8=1,9=11,15=111,16=1/1,2,10;
 10/6=1/2;
 7/8=1,10=1,25=1/1,2,3,16;
 1/10=4,30=1/3;
 99//99;
 ---------------------------
 *** Vibrations CO2 **** 0 1
 ---------------------------
 Redundant internal coordinates taken from checkpoint file:
 geom.chk
 Charge =  0 Multiplicity = 1
 C,0,0.,0.,0.
 O,0,0.,0.,1.160766406
 O,0,0.,0.,-1.160766406
 Recover connectivity data from disk.

 GradGradGradGradGradGradGradGradGradGradGradGradGradGradGradGradGradGrad
 Berny optimization.
 Initialization pass.
                           ----------------------------
                           !    Initial Parameters    !
                           ! (Angstroms and Degrees)  !
 --------------------------                            --------------------------
 ! Name  Definition              Value          Derivative Info.                !
 --------------------------------------------------------------------------------
 ! R1    R(1,2)                  1.1608         calculate D2E/DX2 analytically  !
 ! R2    R(1,3)                  1.1608         calculate D2E/DX2 analytically  !
 ! A1    L(2,1,3,-1,-1)        180.0            calculate D2E/DX2 analytically  !
 ! A2    L(2,1,3,-2,-2)        180.0            calculate D2E/DX2 analytically  !
 --------------------------------------------------------------------------------
 Trust Radius=3.00D-01 FncErr=1.00D-07 GrdErr=1.00D-07
 Number of steps in this run=   2 maximum allowed number of steps=   2.
 GradGradGradGradGradGradGradGradGradGradGradGradGradGradGradGradGradGrad

                          Input orientation:                          
 ---------------------------------------------------------------------
 Center     Atomic     Atomic              Coordinates (Angstroms)
 Number     Number      Type              X           Y           Z
 ---------------------------------------------------------------------
    1          6             0        0.000000    0.000000    0.000000
    2          8             0        0.000000    0.000000    1.160766
    3          8             0        0.000000    0.000000   -1.160766
 ---------------------------------------------------------------------
                    Distance matrix (angstroms):
                    1          2          3
     1  C    0.000000
     2  O    1.160766   0.000000
     3  O    1.160766   2.321533   0.000000
 Stoichiometry    CO2
 Framework group  D*H[O(C),C*(O.O)]
 Deg. of freedom     1
 Full point group                 D*H     NOp   8
 Largest Abelian subgroup         D2H     NOp   8
 Largest concise Abelian subgroup C2      NOp   2
                         Standard orientation:                         
 ---------------------------------------------------------------------
 Center     Atomic     Atomic              Coordinates (Angstroms)
 Number     Number      Type              X           Y           Z
 ---------------------------------------------------------------------
    1          6             0        0.000000    0.000000    0.000000
    2          8             0        0.000000    0.000000    1.160766
    3          8             0        0.000000    0.000000   -1.160766
 ---------------------------------------------------------------------
 Rotational constants (GHZ):      0.0000000     11.7250746     11.7250746
 Standard basis: 6-311+G(d,p) (5D, 7F)
 There are    18 symmetry adapted basis functions of AG  symmetry.
 There are     2 symmetry adapted basis functions of B1G symmetry.
 There are     6 symmetry adapted basis functions of B2G symmetry.
 There are     6 symmetry adapted basis functions of B3G symmetry.
 There are     1 symmetry adapted basis functions of AU  symmetry.
 There are    15 symmetry adapted basis functions of B1U symmetry.
 There are     9 symmetry adapted basis functions of B2U symmetry.
 There are     9 symmetry adapted basis functions of B3U symmetry.
 Integral buffers will be    131072 words long.
 Raffenetti 2 integral format.
 Two-electron integral symmetry is turned on.
    66 basis functions,   108 primitive gaussians,    69 cartesian basis functions
    11 alpha electrons       11 beta electrons
       nuclear repulsion energy        58.3534140130 Hartrees.
 NAtoms=    3 NActive=    3 NUniq=    2 SFac= 2.76D+00 NAtFMM=   60 Big=F
 One-electron integrals computed using PRISM.
 NBasis=    66 RedAO= T  NBF=    18     2     6     6     1    15     9     9
 NBsUse=    66 1.00D-06 NBFU=    18     2     6     6     1    15     9     9
 Harris functional with IExCor=  402 diagonalized for initial guess.
 ExpMin= 4.38D-02 ExpMax= 8.59D+03 ExpMxC= 1.30D+03 IAcc=2 IRadAn=         4 AccDes= 0.00D+00
 HarFok:  IExCor= 402 AccDes= 0.00D+00 IRadAn=         4 IDoV=1
 ScaDFX=  1.000000  1.000000  1.000000  1.000000
 Initial guess orbital symmetries:
       Occupied  (SGG) (SGU) (SGG) (SGG) (SGU) (SGG) (SGU) (PIU)
                 (PIU) (PIG) (PIG)
       Virtual   (PIU) (PIU) (SGG) (SGU) (PIU) (PIU) (SGG) (SGG)
                 (PIG) (PIG) (SGU) (PIU) (PIU) (SGU) (SGG) (PIU)
                 (PIU) (SGU) (SGU) (SGG) (PIG) (PIG) (SGG) (PIU)
                 (PIU) (SGU) (DLTG) (DLTG) (SGG) (PIG) (PIG) (SGU)
                 (PIU) (PIU) (DLTU) (DLTU) (SGG) (DLTG) (DLTG)
                 (PIU) (PIU) (SGU) (PIG) (PIG) (SGG) (SGU) (PIU)
                 (PIU) (PIG) (PIG) (SGU) (SGG) (SGG) (SGU) (SGG)
 The electronic state of the initial guess is 1-SGG.
 Requested convergence on RMS density matrix=1.00D-08 within 128 cycles.
 Requested convergence on MAX density matrix=1.00D-06.
 Requested convergence on             energy=1.00D-06.
 No special actions if energy rises.
 Keep R1 integrals in memory in canonical form, NReq=     3969203.
 SCF Done:  E(RB+HF-LYP) =  -188.646914788     A.U. after    8 cycles
             Convg  =    0.3369D-08             -V/T =  2.0031
             S**2   =   0.0000
 Range of M.O.s used for correlation:     1    66
 NBasis=    66 NAE=    11 NBE=    11 NFC=     0 NFV=     0
 NROrb=     66 NOA=    11 NOB=    11 NVA=    55 NVB=    55

 **** Warning!!: The largest alpha MO coefficient is  0.10885140D+02

 Symmetrizing basis deriv contribution to polar:
 IMax=3 JMax=2 DiffMx= 0.00D+00
 G2DrvN: will do    4 centers at a time, making    1 passes doing MaxLOS=2.
 FoFDir/FoFCou used for L=0 through L=2.
 DoAtom=TTT
          Differentiating once with respect to electric field.
                with respect to dipole field.
          Differentiating once with respect to nuclear coordinates.
          Store integrals in memory, NReq=     3738451.
          There are   9 degrees of freedom in the 1st order CPHF.
     9 vectors were produced by pass  0.
 AX will form   9 AO Fock derivatives at one time.
     9 vectors were produced by pass  1.
     9 vectors were produced by pass  2.
     9 vectors were produced by pass  3.
     9 vectors were produced by pass  4.
     7 vectors were produced by pass  5.
     2 vectors were produced by pass  6.
     1 vectors were produced by pass  7.
 Inv2:  IOpt= 1 Iter= 1 AM= 8.84D-16 Conv= 1.00D-12.
 Inverted reduced A of dimension   55 with in-core refinement.
 Isotropic polarizability for W=    0.000000       14.65 Bohr**3.
 End of Minotr Frequency-dependent properties file   721 does not exist.
 Full mass-weighted force constant matrix:
 Low frequencies ---   -0.0010    0.0003    0.0006    2.0999    2.0999  668.4972
 Low frequencies ---  668.4972 1373.1232 2420.3222
 Diagonal vibrational polarizability:
        1.9905163       1.9905163       3.2695045
 Harmonic frequencies (cm**-1), IR intensities (KM/Mole), Raman scattering
 activities (A**4/AMU), depolarization ratios for plane and unpolarized
 incident light, reduced masses (AMU), force constants (mDyne/A),
 and normal coordinates:
                     1                      2                      3
                    PIU                    PIU                    SGG
 Frequencies --   668.4972               668.4972              1373.1232
 Red. masses --    12.8774                12.8774                15.9949
 Frc consts  --     3.3906                 3.3906                17.7685
 IR Inten    --    33.0546                33.0546                 0.0000
 Atom AN      X      Y      Z        X      Y      Z        X      Y      Z
   1   6    -0.14   0.87   0.00     0.87   0.14   0.00     0.00   0.00   0.00
   2   8     0.05  -0.33   0.00    -0.33  -0.05   0.00     0.00   0.00   0.71
   3   8     0.05  -0.33   0.00    -0.33  -0.05   0.00     0.00   0.00  -0.71
                     4
                    SGU
 Frequencies --  2420.3222
 Red. masses --    12.8774
 Frc consts  --    44.4451
 IR Inten    --   711.6971
 Atom AN      X      Y      Z
   1   6     0.00   0.00   0.88
   2   8     0.00   0.00  -0.33
   3   8     0.00   0.00  -0.33

 -------------------
 - Thermochemistry -
 -------------------
 Temperature   298.150 Kelvin.  Pressure   1.00000 Atm.
 Atom  1 has atomic number  6 and mass  12.00000
 Atom  2 has atomic number  8 and mass  15.99491
 Atom  3 has atomic number  8 and mass  15.99491
 Molecular mass:    43.98983 amu.
 Principal axes and moments of inertia in atomic units:
                           1         2         3
     EIGENVALUES --     0.00000 153.92151 153.92151
           X            0.00000   0.40438   0.91459
           Y            0.00000   0.91459  -0.40438
           Z            1.00000   0.00000   0.00000
 This molecule is a prolate symmetric top.
 Rotational symmetry number  2.
 Rotational temperature (Kelvin)      0.56271
 Rotational constant (GHZ):          11.725075
 Zero-point vibrational energy      30686.8 (Joules/Mol)
                                    7.33433 (Kcal/Mol)
 Vibrational temperatures:    961.82   961.82  1975.62  3482.30
          (Kelvin)
 
 Zero-point correction=                           0.011688 (Hartree/Particle)
 Thermal correction to Energy=                    0.014309
 Thermal correction to Enthalpy=                  0.015253
 Thermal correction to Gibbs Free Energy=        -0.009006
 Sum of electronic and zero-point Energies=           -188.635227
 Sum of electronic and thermal Energies=              -188.632606
 Sum of electronic and thermal Enthalpies=            -188.631662
 Sum of electronic and thermal Free Energies=         -188.655920
 
                     E (Thermal)             CV                S
                      KCal/Mol        Cal/Mol-Kelvin    Cal/Mol-Kelvin
 Total                    8.979              6.868             51.057
 Electronic               0.000              0.000              0.000
 Translational            0.889              2.981             37.270
 Rotational               0.592              1.987             13.075
 Vibrational              7.498              1.900              0.712
                       Q            Log10(Q)             Ln(Q)
 Total Bot       0.138767D+05          4.142286          9.537966
 Total V=0       0.329900D+10          9.518383         21.916886
 Vib (Bot)       0.456757D-05         -5.340314        -12.296528
 Vib (V=0)       0.108588D+01          0.035782          0.082391
 Electronic      0.100000D+01          0.000000          0.000000
 Translational   0.114679D+08          7.059484         16.255062
 Rotational      0.264921D+03          2.423117          5.579433
 ***** Axes restored to original set *****
 -------------------------------------------------------------------
 Center     Atomic                   Forces (Hartrees/Bohr)
 Number     Number              X              Y              Z
 -------------------------------------------------------------------
    1          6           0.000000000    0.000000000    0.000000000
    2          8           0.000000000    0.000000000    0.000071920
    3          8           0.000000000    0.000000000   -0.000071920
 -------------------------------------------------------------------
 Cartesian Forces:  Max     0.000071920 RMS     0.000033903

 GradGradGradGradGradGradGradGradGradGradGradGradGradGradGradGradGradGrad
 Berny optimization.
 Internal  Forces:  Max     0.000071920 RMS     0.000050855
 Search for a local minimum.
 Step number   1 out of a maximum of   2
 All quantities printed in internal units (Hartrees-Bohrs-Radians)
 Second derivative matrix not updated -- analytic derivatives used.
 The second derivative matrix:
                          R1        R2        A1        A2
           R1           1.05428
           R2           0.08700   1.05428
           A1           0.00000   0.00000   0.17760
           A2           0.00000   0.00000   0.00000   0.17760
     Eigenvalues ---    0.17760   0.17760   0.96727   1.14128
 Angle between quadratic step and forces=   0.00 degrees.
 Linear search not attempted -- first point.
 Iteration  1 RMS(Cart)=  0.00004456 RMS(Int)=  0.00000000
 Iteration  2 RMS(Cart)=  0.00000000 RMS(Int)=  0.00000000
 Variable       Old X    -DE/DX   Delta X   Delta X   Delta X     New X
                                 (Linear)    (Quad)   (Total)
    R1        2.19353   0.00007   0.00000   0.00006   0.00006   2.19359
    R2        2.19353   0.00007   0.00000   0.00006   0.00006   2.19359
    A1        3.14159   0.00000   0.00000   0.00000   0.00000   3.14159
    A2        3.14159   0.00000   0.00000   0.00000   0.00000   3.14159
         Item               Value     Threshold  Converged?
 Maximum Force            0.000072     0.000450     YES
 RMS     Force            0.000051     0.000300     YES
 Maximum Displacement     0.000063     0.001800     YES
 RMS     Displacement     0.000045     0.001200     YES
 Predicted change in Energy=-4.532127D-09
 Optimization completed.
    -- Stationary point found.
                           ----------------------------
                           !   Optimized Parameters   !
                           ! (Angstroms and Degrees)  !
 --------------------------                            --------------------------
 ! Name  Definition              Value          Derivative Info.                !
 --------------------------------------------------------------------------------
 ! R1    R(1,2)                  1.1608         -DE/DX =    0.0001              !
 ! R2    R(1,3)                  1.1608         -DE/DX =    0.0001              !
 ! A1    L(2,1,3,-1,-1)        180.0            -DE/DX =    0.0                 !
 ! A2    L(2,1,3,-2,-2)        180.0            -DE/DX =    0.0                 !
 --------------------------------------------------------------------------------
 GradGradGradGradGradGradGradGradGradGradGradGradGradGradGradGradGradGrad


 Test job not archived.
 1\1\GINC-CLUSTER-BIO\Freq\RB3LYP\6-311+G(d,p)\C1O2\CHAQUIN\18-Mar-2012
 \0\\# B3LYP 6-311+G** GEOM=CHECKPOINT FREQ POP=NONE TEST\\*** Vibratio
 ns CO2 **** 0 1\\0,1\C,0.,0.,0.\O,0.,0.,1.160766406\O,0.,0.,-1.1607664
 06\\Version=AM64L-G03RevC.02\State=1-SGG\HF=-188.6469148\RMSD=3.369e-0
 9\RMSF=3.390e-05\Dipole=0.,0.,0.\DipoleDeriv=0.5439522,0.,0.,0.,0.5439
 522,0.,0.,0.,2.5240177,-0.2719761,0.,0.,0.,-0.2719761,0.,0.,0.,-1.2620
 089,-0.2719761,0.,0.,0.,-0.2719761,0.,0.,0.,-1.2620089\Polar=8.9819112
 ,0.,8.9819112,0.,0.,25.9954818\PG=D*H [O(C1),C*(O1.O1)]\NImag=0\\0.147
 58137,0.,0.14758137,0.,0.,1.93454437,-0.07379069,0.,0.,0.03689668,0.,-
 0.07379069,0.,0.,0.03689668,0.,0.,-0.96727218,0.,0.,1.05427634,-0.0737
 9069,0.,0.,0.03689401,0.,0.,0.03689668,0.,-0.07379069,0.,0.,0.03689401
 ,0.,0.,0.03689668,0.,0.,-0.96727218,0.,0.,-0.08700416,0.,0.,1.05427634
 \\0.,0.,0.,0.,0.,-0.00007192,0.,0.,0.00007192\\\@


 REALITY IS FOR PEOPLE WHO CAN'T FACE SCIENCE FICTION.
 Job cpu time:  0 days  0 hours  0 minutes 20.7 seconds.
 File lengths (MBytes):  RWF=     13 Int=      0 D2E=      0 Chk=     11 Scr=      1
 Normal termination of Gaussian 03 at Sun Mar 18 10:47:26 2012.
28.59user 3.00system 0:32.47elapsed 97%CPU (0avgtext+0avgdata 0maxresident)k
0inputs+0outputs (262major+952970minor)pagefaults 0swaps
