[Molden Format]
[Atoms] Angs
 C     1  6     0.000000     0.000000     0.000000
 O     2  8     0.000000     0.000000     1.160766
 O     3  8     0.000000     0.000000    -1.160766
[FREQ]
  668.4972
  668.4972
 1373.1232
 2420.3222
[INT]
   33.0546
   33.0546
    0.0000
  711.6971
[FR-COORD]
 C     0.000000     0.000000     0.000000
 O     0.000000     0.000000     2.193530
 O     0.000000     0.000000    -2.193530
[FR-NORM-COORD]
vibration     1
   -0.140000     0.870000     0.000000
    0.050000    -0.330000     0.000000
    0.050000    -0.330000     0.000000
vibration     2
    0.870000     0.140000     0.000000
   -0.330000    -0.050000     0.000000
   -0.330000    -0.050000     0.000000
vibration     3
    0.000000     0.000000     0.000000
    0.000000     0.000000     0.710000
    0.000000     0.000000    -0.710000
vibration     4
-231584178474632390847141970017375815706539969331281128078915168015826259279872.000000    -0.000000     0.000000
    0.000000     0.000000     0.000000
    0.000000-3105036369816143187096326364506788107167849846596105284357693717839253452320039509718962679235317848151258532311219820845017360581246845358245186117152892817728138015805268075869183191627061878374059317752517094551466279912190509056.000000     0.000000
