 Entering Gaussian System, Link 0=/usr/local/g03/g03
 Initial command:
 /usr/local/g03/l1.exe /home/chaquin/ENSEIGNEMENT/Gau-19791.inp -scrdir=/home/chaquin/ENSEIGNEMENT/
 Entering Link 1 = /usr/local/g03/l1.exe PID=     20029.
  
 Copyright (c) 1988,1990,1992,1993,1995,1998,2003,2004, Gaussian, Inc.
                  All Rights Reserved.
  
 This is the Gaussian(R) 03 program.  It is based on the
 the Gaussian(R) 98 system (copyright 1998, Gaussian, Inc.),
 the Gaussian(R) 94 system (copyright 1995, Gaussian, Inc.),
 the Gaussian 92(TM) system (copyright 1992, Gaussian, Inc.),
 the Gaussian 90(TM) system (copyright 1990, Gaussian, Inc.),
 the Gaussian 88(TM) system (copyright 1988, Gaussian, Inc.),
 the Gaussian 86(TM) system (copyright 1986, Carnegie Mellon
 University), and the Gaussian 82(TM) system (copyright 1983,
 Carnegie Mellon University). Gaussian is a federally registered
 trademark of Gaussian, Inc.
  
 This software contains proprietary and confidential information,
 including trade secrets, belonging to Gaussian, Inc.
  
 This software is provided under written license and may be
 used, copied, transmitted, or stored only in accord with that
 written license.
  
 The following legend is applicable only to US Government
 contracts under FAR:
  
                    RESTRICTED RIGHTS LEGEND
  
 Use, reproduction and disclosure by the US Government is
 subject to restrictions as set forth in subparagraphs (a)
 and (c) of the Commercial Computer Software - Restricted
 Rights clause in FAR 52.227-19.
  
 Gaussian, Inc.
 340 Quinnipiac St., Bldg. 40, Wallingford CT 06492
  
  
 ---------------------------------------------------------------
 Warning -- This program may not be used in any manner that
 competes with the business of Gaussian, Inc. or will provide
 assistance to any competitor of Gaussian, Inc.  The licensee
 of this program is prohibited from giving any competitor of
 Gaussian, Inc. access to this program.  By using this program,
 the user acknowledges that Gaussian, Inc. is engaged in the
 business of creating and licensing software in the field of
 computational chemistry and represents and warrants to the
 licensee that it is not a competitor of Gaussian, Inc. and that
 it will not use this program in any manner prohibited above.
 ---------------------------------------------------------------
  

 Cite this work as:
 Gaussian 03, Revision C.02,
 M. J. Frisch, G. W. Trucks, H. B. Schlegel, G. E. Scuseria, 
 M. A. Robb, J. R. Cheeseman, J. A. Montgomery, Jr., T. Vreven, 
 K. N. Kudin, J. C. Burant, J. M. Millam, S. S. Iyengar, J. Tomasi, 
 V. Barone, B. Mennucci, M. Cossi, G. Scalmani, N. Rega, 
 G. A. Petersson, H. Nakatsuji, M. Hada, M. Ehara, K. Toyota, 
 R. Fukuda, J. Hasegawa, M. Ishida, T. Nakajima, Y. Honda, O. Kitao, 
 H. Nakai, M. Klene, X. Li, J. E. Knox, H. P. Hratchian, J. B. Cross, 
 C. Adamo, J. Jaramillo, R. Gomperts, R. E. Stratmann, O. Yazyev, 
 A. J. Austin, R. Cammi, C. Pomelli, J. W. Ochterski, P. Y. Ayala, 
 K. Morokuma, G. A. Voth, P. Salvador, J. J. Dannenberg, 
 V. G. Zakrzewski, S. Dapprich, A. D. Daniels, M. C. Strain, 
 O. Farkas, D. K. Malick, A. D. Rabuck, K. Raghavachari, 
 J. B. Foresman, J. V. Ortiz, Q. Cui, A. G. Baboul, S. Clifford, 
 J. Cioslowski, B. B. Stefanov, G. Liu, A. Liashenko, P. Piskorz, 
 I. Komaromi, R. L. Martin, D. J. Fox, T. Keith, M. A. Al-Laham, 
 C. Y. Peng, A. Nanayakkara, M. Challacombe, P. M. W. Gill, 
 B. Johnson, W. Chen, M. W. Wong, C. Gonzalez, and J. A. Pople, 
 Gaussian, Inc., Wallingford CT, 2004.
 
 ******************************************
 Gaussian 03:  AM64L-G03RevC.02 12-Jun-2004
                22-Oct-2012 
 ******************************************
 %chk=geom
 ----------------------------------------------------
 # B3LYP 6-311+G** geom=checkpoint freq pop=none test
 ----------------------------------------------------
 1/10=4,29=2,30=1,38=1/1,3;
 2/40=1/2;
 3/5=4,6=6,7=111,11=2,16=1,25=1,30=1,74=-5/1,2,3;
 4//1;
 5/5=2,38=5/2;
 8/6=4,10=90,11=11/1;
 11/6=1,8=1,9=11,15=111,16=1/1,2,10;
 10/6=1/2;
 7/8=1,10=1,25=1/1,2,3,16;
 1/10=4,30=1/3;
 99//99;
 ----------------------------------
 *** Vibrations cyclohexane**** 0 1
 ----------------------------------
 No Z-matrix found on checkpoint file.
 Cartesian coordinates read from the checkpoint file:
 geom.chk
 Charge =  0 Multiplicity = 1
  C                                                -1.127605754959      0.584717579911     -0.767613818512
  C                                                -1.123929146987      0.591885747305      0.767823018705
  C                                                 0.305333343760      0.584405175762      1.329362576852
  C                                                 1.127536569134     -0.584793140125      0.767637364958
  C                                                 1.123961027535     -0.591850942845     -0.767801312679
  C                                                -0.305274540165     -0.584367321494     -1.329396209647
  H                                                -2.155018486732      0.539302341913     -1.143452753733
  H                                                -0.705987305346      1.530730363133     -1.133603589645
  H                                                -1.659914725113     -0.294194370803      1.134047022387
  H                                                -1.673359458132      1.461455339079      1.143266105841
  H                                                 0.799683618104      1.530151257995      1.069114708316
  H                                                 0.281649097087      0.539606839444      2.423165993347
  H                                                 2.154910080872     -0.539626031358      1.143587810233
  H                                                 0.705668092207     -1.530741226128      1.133520191229
  H                                                 1.673436124777     -1.461361021479     -1.143309005303
  H                                                 1.659934903435      0.294287344139     -1.133906776159
  H                                                -0.799583385134     -1.530175520220     -1.069302329842
  H                                                -0.281547545930     -0.539417906797     -2.423197094736
 Recover connectivity data from disk.

 GradGradGradGradGradGradGradGradGradGradGradGradGradGradGradGradGradGrad
 Berny optimization.
 Initialization pass.
 Trust Radius=3.00D-01 FncErr=1.00D-07 GrdErr=1.00D-07
 Number of steps in this run=   2 maximum allowed number of steps=   2.
 GradGradGradGradGradGradGradGradGradGradGradGradGradGradGradGradGradGrad

                          Input orientation:                          
 ---------------------------------------------------------------------
 Center     Atomic     Atomic              Coordinates (Angstroms)
 Number     Number      Type              X           Y           Z
 ---------------------------------------------------------------------
    1          6             0       -1.127606    0.584718   -0.767614
    2          6             0       -1.123929    0.591886    0.767823
    3          6             0        0.305333    0.584405    1.329363
    4          6             0        1.127537   -0.584793    0.767637
    5          6             0        1.123961   -0.591851   -0.767801
    6          6             0       -0.305275   -0.584367   -1.329396
    7          1             0       -2.155018    0.539302   -1.143453
    8          1             0       -0.705987    1.530730   -1.133604
    9          1             0       -1.659915   -0.294194    1.134047
   10          1             0       -1.673359    1.461455    1.143266
   11          1             0        0.799684    1.530151    1.069115
   12          1             0        0.281649    0.539607    2.423166
   13          1             0        2.154910   -0.539626    1.143588
   14          1             0        0.705668   -1.530741    1.133520
   15          1             0        1.673436   -1.461361   -1.143309
   16          1             0        1.659935    0.294287   -1.133907
   17          1             0       -0.799583   -1.530176   -1.069302
   18          1             0       -0.281548   -0.539418   -2.423197
 ---------------------------------------------------------------------
                    Distance matrix (angstroms):
                    1          2          3          4          5
     1  C    0.000000
     2  C    1.535458   0.000000
     3  C    2.539808   1.535635   0.000000
     4  C    2.968235   2.540408   1.535766   0.000000
     5  C    2.540446   2.968566   2.540045   1.535459   0.000000
     6  C    1.535769   2.540097   2.967805   2.539783   1.535630
     7  H    1.094940   2.172300   3.488579   3.961190   3.488886
     8  H    1.098477   2.161372   2.825686   3.384075   2.826283
     9  H    2.161516   1.098425   2.161547   2.826409   3.384611
    10  H    2.172091   1.094981   2.172343   3.489018   3.961470
    11  H    2.825219   2.161343   1.098429   2.161334   2.825298
    12  H    3.488425   2.172221   1.094977   2.172689   3.488833
    13  H    3.961281   3.488883   2.172301   1.094932   2.172324
    14  H    3.383839   2.826076   2.161589   1.098481   2.161367
    15  H    3.489043   3.961502   3.488692   2.172117   1.094978
    16  H    2.826465   3.384530   2.826094   2.161504   1.098427
    17  H    2.161339   2.825486   3.383177   2.825223   2.161337
    18  H    2.172660   3.488849   3.960948   3.488410   2.172220
                    6          7          8          9         10
     6  C    0.000000
     7  H    2.172271   0.000000
     8  H    2.161607   1.755767   0.000000
     9  H    2.826270   2.475247   3.063098   0.000000
    10  H    3.488711   2.512259   2.474822   1.755725   0.000000
    11  H    3.383042   3.821976   2.668148   3.063018   2.475108
    12  H    3.961000   4.319504   3.822089   2.475222   2.511973
    13  H    3.488576   4.997012   4.201989   3.822724   4.319719
    14  H    2.825524   4.201573   4.062663   2.669275   3.822709
    15  H    2.172336   4.319690   3.822873   4.202363   4.997231
    16  H    2.161550   3.822825   2.669528   4.063413   4.202220
    17  H    1.098428   2.474963   3.063012   2.668814   3.822146
    18  H    1.094981   2.512225   2.475624   3.822828   4.319756
                   11         12         13         14         15
    11  H    0.000000
    12  H    1.755845   0.000000
    13  H    2.475109   2.512204   0.000000
    14  H    3.063013   2.475746   1.755766   0.000000
    15  H    3.821964   4.319802   2.512232   2.474942   0.000000
    16  H    2.668463   3.822646   2.475357   3.063100   1.755725
    17  H    4.061537   4.201238   3.821924   2.667997   2.475083
    18  H    4.201002   4.996871   4.319523   3.821983   2.511982
                   16         17         18
    16  H    0.000000
    17  H    3.063016   0.000000
    18  H    2.475215   1.755845   0.000000
 Stoichiometry    C6H12
 Framework group  C1[X(C6H12)]
 Deg. of freedom    48
 Full point group                 C1      NOp   1
 Largest Abelian subgroup         C1      NOp   1
 Largest concise Abelian subgroup C1      NOp   1
                         Standard orientation:                         
 ---------------------------------------------------------------------
 Center     Atomic     Atomic              Coordinates (Angstroms)
 Number     Number      Type              X           Y           Z
 ---------------------------------------------------------------------
    1          6             0       -1.043220    1.030768    0.227663
    2          6             0       -1.414508   -0.387823   -0.227721
    3          6             0       -0.371269   -1.418539    0.227746
    4          6             0        1.043196   -1.030754   -0.227765
    5          6             0        1.414511    0.387787    0.227757
    6          6             0        0.371306    1.418544   -0.227678
    7          1             0       -1.773663    1.753208   -0.151055
    8          1             0       -1.096174    1.083077    1.323615
    9          1             0       -1.486535   -0.407704   -1.323602
   10          1             0       -2.405250   -0.659501    0.151231
   11          1             0       -0.389820   -1.489874    1.323699
   12          1             0       -0.631650   -2.412596   -0.150443
   13          1             0        1.773708   -1.753248    0.150693
   14          1             0        1.095937   -1.082884   -1.323740
   15          1             0        2.405275    0.659500   -0.151105
   16          1             0        1.486470    0.407554    1.323647
   17          1             0        0.389960    1.490014   -1.323619
   18          1             0        0.631644    2.412562    0.150657
 ---------------------------------------------------------------------
 Rotational constants (GHZ):      4.2884325      4.2864445      2.4436072
 Standard basis: 6-311+G(d,p) (5D, 7F)
 There are   204 symmetry adapted basis functions of A   symmetry.
 Integral buffers will be    131072 words long.
 Raffenetti 2 integral format.
 Two-electron integral symmetry is turned on.
   204 basis functions,   312 primitive gaussians,   210 cartesian basis functions
    24 alpha electrons       24 beta electrons
       nuclear repulsion energy       255.1629164845 Hartrees.
 NAtoms=   18 NActive=   18 NUniq=   18 SFac= 1.00D+00 NAtFMM=   60 Big=F
 One-electron integrals computed using PRISM.
 NBasis=   204 RedAO= T  NBF=   204
 NBsUse=   204 1.00D-06 NBFU=   204
 Harris functional with IExCor=  402 diagonalized for initial guess.
 ExpMin= 4.38D-02 ExpMax= 4.56D+03 ExpMxC= 6.82D+02 IAcc=2 IRadAn=         4 AccDes= 0.00D+00
 HarFok:  IExCor= 402 AccDes= 0.00D+00 IRadAn=         4 IDoV=1
 ScaDFX=  1.000000  1.000000  1.000000  1.000000
 Initial guess orbital symmetries:
       Occupied  (A) (A) (A) (A) (A) (A) (A) (A) (A) (A) (A) (A)
                 (A) (A) (A) (A) (A) (A) (A) (A) (A) (A) (A) (A)
       Virtual   (A) (A) (A) (A) (A) (A) (A) (A) (A) (A) (A) (A)
                 (A) (A) (A) (A) (A) (A) (A) (A) (A) (A) (A) (A)
                 (A) (A) (A) (A) (A) (A) (A) (A) (A) (A) (A) (A)
                 (A) (A) (A) (A) (A) (A) (A) (A) (A) (A) (A) (A)
                 (A) (A) (A) (A) (A) (A) (A) (A) (A) (A) (A) (A)
                 (A) (A) (A) (A) (A) (A) (A) (A) (A) (A) (A) (A)
                 (A) (A) (A) (A) (A) (A) (A) (A) (A) (A) (A) (A)
                 (A) (A) (A) (A) (A) (A) (A) (A) (A) (A) (A) (A)
                 (A) (A) (A) (A) (A) (A) (A) (A) (A) (A) (A) (A)
                 (A) (A) (A) (A) (A) (A) (A) (A) (A) (A) (A) (A)
                 (A) (A) (A) (A) (A) (A) (A) (A) (A) (A) (A) (A)
                 (A) (A) (A) (A) (A) (A) (A) (A) (A) (A) (A) (A)
                 (A) (A) (A) (A) (A) (A) (A) (A) (A) (A) (A) (A)
                 (A) (A) (A) (A) (A) (A) (A) (A) (A) (A) (A) (A)
                 (A) (A) (A) (A) (A) (A) (A) (A) (A) (A) (A) (A)
 The electronic state of the initial guess is 1-A.
 Requested convergence on RMS density matrix=1.00D-08 within 128 cycles.
 Requested convergence on MAX density matrix=1.00D-06.
 Requested convergence on             energy=1.00D-06.
 No special actions if energy rises.
 SCF Done:  E(RB+HF-LYP) =  -235.944875390     A.U. after    9 cycles
             Convg  =    0.7576D-08             -V/T =  2.0053
             S**2   =   0.0000
 Range of M.O.s used for correlation:     1   204
 NBasis=   204 NAE=    24 NBE=    24 NFC=     0 NFV=     0
 NROrb=    204 NOA=    24 NOB=    24 NVA=   180 NVB=   180

 **** Warning!!: The largest alpha MO coefficient is  0.56477374D+02

 Symmetrizing basis deriv contribution to polar:
 IMax=3 JMax=2 DiffMx= 0.00D+00
 G2DrvN: will do   19 centers at a time, making    1 passes doing MaxLOS=2.
 FoFDir/FoFCou used for L=0 through L=2.
 DoAtom=TTTTTTTTTTTTTTTTTT
          Differentiating once with respect to electric field.
                with respect to dipole field.
          Differentiating once with respect to nuclear coordinates.
 Integrals replicated using symmetry in FoFDir.
 MinBra= 0 MaxBra= 2 Meth= 1.
 IRaf=       0 NMat=  57 IRICut=      57 DoRegI=T DoRafI=T ISym2E= 2 JSym2E=2.
          There are  57 degrees of freedom in the 1st order CPHF.
    54 vectors were produced by pass  0.
 AX will form  54 AO Fock derivatives at one time.
    54 vectors were produced by pass  1.
    54 vectors were produced by pass  2.
    54 vectors were produced by pass  3.
    54 vectors were produced by pass  4.
    26 vectors were produced by pass  5.
     8 vectors were produced by pass  6.
     3 vectors were produced by pass  7.
     1 vectors were produced by pass  8.
 Inv2:  IOpt= 1 Iter= 1 AM= 3.24D-15 Conv= 1.00D-12.
 Inverted reduced A of dimension  308 with in-core refinement.
 Isotropic polarizability for W=    0.000000       69.34 Bohr**3.
 End of Minotr Frequency-dependent properties file   721 does not exist.
 Full mass-weighted force constant matrix:
 Low frequencies ---  -25.3507   -0.0007    0.0005    0.0006   21.0995   49.0680
 Low frequencies ---  229.1240  233.3535  371.6612
 Diagonal vibrational polarizability:
        0.7027888       0.7026933       0.9949888
 Harmonic frequencies (cm**-1), IR intensities (KM/Mole), Raman scattering
 activities (A**4/AMU), depolarization ratios for plane and unpolarized
 incident light, reduced masses (AMU), force constants (mDyne/A),
 and normal coordinates:
                     1                      2                      3
                     A                      A                      A
 Frequencies --   229.1240               233.3535               371.6595
 Red. masses --     1.7574                 1.7563                 1.5353
 Frc consts  --     0.0544                 0.0563                 0.1249
 IR Inten    --     0.0007                 0.0004                 0.0000
 Atom AN      X      Y      Z        X      Y      Z        X      Y      Z
   1   6     0.03  -0.03   0.13     0.03   0.04  -0.01     0.03  -0.03   0.07
   2   6     0.01   0.05  -0.06    -0.04   0.01   0.12     0.05   0.02  -0.07
   3   6    -0.05  -0.01  -0.08     0.02  -0.04  -0.11     0.02   0.05   0.07
   4   6     0.03  -0.03   0.13     0.03   0.04  -0.01    -0.03   0.03  -0.07
   5   6     0.01   0.05  -0.06    -0.04   0.01   0.12    -0.05  -0.02   0.07
   6   6    -0.05  -0.01  -0.08     0.02  -0.04  -0.11    -0.02  -0.05  -0.07
   7   1    -0.03   0.03   0.38     0.02   0.01  -0.03    -0.02   0.02   0.27
   8   1     0.24  -0.21   0.15     0.11   0.15  -0.01     0.19  -0.19   0.09
   9   1     0.09   0.20  -0.07    -0.30   0.00   0.14     0.27   0.08  -0.09
  10   1    -0.03   0.01  -0.17     0.04   0.02   0.35    -0.02  -0.01  -0.27
  11   1    -0.19  -0.14  -0.09     0.03  -0.28  -0.13     0.07   0.27   0.09
  12   1    -0.01   0.03  -0.22     0.02   0.04  -0.32    -0.01  -0.02   0.27
  13   1    -0.03   0.03   0.38     0.02   0.01  -0.03     0.02  -0.02  -0.27
  14   1     0.24  -0.21   0.15     0.11   0.15  -0.01    -0.19   0.19  -0.09
  15   1    -0.02   0.01  -0.17     0.04   0.02   0.35     0.02   0.01   0.27
  16   1     0.09   0.20  -0.07    -0.30   0.00   0.14    -0.27  -0.08   0.09
  17   1    -0.19  -0.14  -0.09     0.03  -0.28  -0.13    -0.07  -0.27  -0.09
  18   1    -0.01   0.03  -0.22     0.02   0.04  -0.32     0.01   0.02  -0.27
                     4                      5                      6
                     A                      A                      A
 Frequencies --   432.2353               436.3592               519.5977
 Red. masses --     2.9690                 2.9826                 1.3079
 Frc consts  --     0.3268                 0.3346                 0.2080
 IR Inten    --     0.0000                 0.0000                 0.6056
 Atom AN      X      Y      Z        X      Y      Z        X      Y      Z
   1   6     0.16  -0.15  -0.05     0.06   0.08   0.00    -0.05   0.05   0.02
   2   6    -0.07  -0.11  -0.03     0.20   0.01   0.05     0.06   0.02   0.02
   3   6    -0.11  -0.09   0.03     0.01  -0.19   0.05    -0.02  -0.06   0.02
   4   6    -0.16   0.15   0.05    -0.06  -0.08   0.00    -0.05   0.05   0.02
   5   6     0.07   0.11   0.03    -0.20  -0.01  -0.05     0.06   0.02   0.02
   6   6     0.11   0.09  -0.03    -0.01   0.19  -0.05    -0.02  -0.06   0.02
   7   1     0.09  -0.10   0.19    -0.08  -0.07  -0.01     0.02  -0.02  -0.24
   8   1     0.32  -0.30  -0.03     0.11   0.14   0.00    -0.23   0.23   0.00
   9   1    -0.13  -0.20  -0.02     0.39   0.02   0.03     0.31   0.08   0.00
  10   1    -0.08   0.08   0.07     0.10   0.08  -0.16    -0.03  -0.01  -0.24
  11   1    -0.20  -0.18   0.02     0.01  -0.37   0.03    -0.08  -0.31   0.00
  12   1     0.07  -0.09  -0.09    -0.09  -0.09  -0.15     0.01   0.03  -0.24
  13   1    -0.09   0.10  -0.19     0.08   0.07   0.01     0.02  -0.02  -0.24
  14   1    -0.32   0.30   0.03    -0.11  -0.14   0.00    -0.23   0.23   0.00
  15   1     0.08  -0.08  -0.07    -0.10  -0.08   0.16    -0.03  -0.01  -0.24
  16   1     0.13   0.20   0.02    -0.39  -0.02  -0.03     0.31   0.08   0.00
  17   1     0.20   0.18  -0.02    -0.01   0.37  -0.03    -0.08  -0.31   0.00
  18   1    -0.07   0.09   0.09     0.09   0.09   0.15     0.01   0.03  -0.24
                     7                      8                      9
                     A                      A                      A
 Frequencies --   794.2187               796.2026               800.3715
 Red. masses --     1.4594                 1.4525                 3.5635
 Frc consts  --     0.5424                 0.5425                 1.3450
 IR Inten    --     0.0000                 0.0000                 0.0000
 Atom AN      X      Y      Z        X      Y      Z        X      Y      Z
   1   6    -0.05   0.04  -0.07    -0.04  -0.04   0.00     0.14  -0.14  -0.05
   2   6     0.02   0.06  -0.03    -0.07   0.01   0.06     0.18   0.05   0.06
   3   6     0.06   0.02   0.04    -0.02   0.06   0.06     0.04   0.18  -0.05
   4   6     0.05  -0.04   0.07     0.04   0.04   0.00    -0.14   0.14   0.05
   5   6    -0.02  -0.06   0.03     0.07  -0.01  -0.06    -0.18  -0.05  -0.06
   6   6    -0.06  -0.02  -0.04     0.02  -0.06  -0.06    -0.04  -0.18   0.05
   7   1    -0.15   0.15   0.35     0.01   0.02   0.00     0.19  -0.19  -0.26
   8   1     0.27  -0.26  -0.04     0.04   0.05   0.00    -0.01   0.01  -0.06
   9   1    -0.16  -0.11  -0.02     0.32   0.05   0.03     0.03   0.01   0.07
  10   1     0.11   0.01   0.17    -0.19  -0.06  -0.31     0.24   0.07   0.21
  11   1    -0.11  -0.17   0.02    -0.04  -0.32   0.03     0.01   0.01  -0.07
  12   1     0.01   0.12  -0.18     0.06   0.18  -0.30     0.07   0.25  -0.24
  13   1     0.15  -0.15  -0.35    -0.02  -0.02   0.00    -0.19   0.19   0.26
  14   1    -0.27   0.26   0.04    -0.04  -0.05   0.00     0.01  -0.01   0.06
  15   1    -0.11  -0.01  -0.17     0.19   0.06   0.31    -0.24  -0.07  -0.21
  16   1     0.16   0.11   0.02    -0.32  -0.05  -0.03    -0.03  -0.01  -0.07
  17   1     0.11   0.17  -0.02     0.04   0.32  -0.03    -0.01  -0.01   0.07
  18   1    -0.01  -0.12   0.18    -0.06  -0.18   0.30    -0.07  -0.25   0.24
                    10                     11                     12
                     A                      A                      A
 Frequencies --   864.5612               868.9829               917.8622
 Red. masses --     2.4430                 2.4262                 1.2923
 Frc consts  --     1.0759                 1.0794                 0.6415
 IR Inten    --     2.0958                 2.1674                 2.0956
 Atom AN      X      Y      Z        X      Y      Z        X      Y      Z
   1   6    -0.12   0.10   0.07    -0.08  -0.10  -0.01     0.02  -0.02   0.09
   2   6    -0.03  -0.13  -0.03     0.15  -0.02   0.06     0.01   0.00  -0.05
   3   6     0.12   0.06  -0.04    -0.04   0.14  -0.05     0.00  -0.01  -0.04
   4   6    -0.12   0.10   0.07    -0.08  -0.10  -0.01     0.02  -0.02   0.09
   5   6    -0.03  -0.13  -0.03     0.15  -0.02   0.06     0.01   0.00  -0.05
   6   6     0.12   0.06  -0.04    -0.04   0.14  -0.05     0.00  -0.01  -0.04
   7   1    -0.16   0.11   0.17    -0.30  -0.33  -0.01     0.11  -0.10  -0.27
   8   1    -0.02   0.01   0.07    -0.08  -0.08  -0.01    -0.24   0.23   0.06
   9   1     0.02  -0.10  -0.03     0.03  -0.05   0.06    -0.24   0.22  -0.03
  10   1     0.03  -0.42  -0.07     0.22  -0.14   0.16     0.10  -0.08   0.14
  11   1     0.09  -0.01  -0.04    -0.06   0.04  -0.06    -0.23   0.23  -0.03
  12   1     0.39   0.01  -0.10    -0.21   0.22  -0.14     0.09  -0.10   0.13
  13   1    -0.16   0.11   0.17    -0.30  -0.33  -0.01     0.11  -0.10  -0.27
  14   1    -0.02   0.01   0.07    -0.08  -0.08  -0.01    -0.24   0.23   0.06
  15   1     0.03  -0.42  -0.07     0.22  -0.14   0.16     0.10  -0.08   0.14
  16   1     0.02  -0.10  -0.03     0.03  -0.05   0.06    -0.24   0.22  -0.03
  17   1     0.09  -0.01  -0.04    -0.06   0.04  -0.06    -0.23   0.23  -0.03
  18   1     0.39   0.01  -0.10    -0.21   0.22  -0.14     0.09  -0.10   0.13
                    13                     14                     15
                     A                      A                      A
 Frequencies --   920.1438              1036.0602              1039.4207
 Red. masses --     1.2924                 1.7624                 1.7511
 Frc consts  --     0.6447                 1.1146                 1.1147
 IR Inten    --     2.0278                 0.0000                 0.0000
 Atom AN      X      Y      Z        X      Y      Z        X      Y      Z
   1   6    -0.01  -0.01   0.00     0.04  -0.04  -0.03     0.09   0.10   0.00
   2   6    -0.02  -0.01   0.08    -0.06   0.10  -0.02    -0.03  -0.08  -0.03
   3   6    -0.01  -0.02  -0.08     0.11  -0.06   0.01     0.08   0.03  -0.03
   4   6    -0.01  -0.01   0.00    -0.04   0.04   0.03    -0.09  -0.10   0.00
   5   6    -0.02  -0.01   0.08     0.06  -0.10   0.02     0.03   0.08   0.03
   6   6    -0.01  -0.02  -0.08    -0.11   0.06  -0.01    -0.08  -0.03   0.03
   7   1    -0.09  -0.09  -0.01     0.06  -0.04  -0.08     0.34   0.34   0.00
   8   1     0.22   0.23   0.00    -0.01   0.02  -0.04     0.19   0.19   0.00
   9   1     0.23   0.23   0.05    -0.05   0.22  -0.02     0.05  -0.11  -0.03
  10   1    -0.11  -0.10  -0.23    -0.14   0.39  -0.04     0.01  -0.26  -0.06
  11   1     0.22   0.24  -0.05     0.22  -0.04   0.02     0.10  -0.05  -0.03
  12   1    -0.09  -0.11   0.23     0.40  -0.14   0.04     0.24   0.00  -0.06
  13   1    -0.09  -0.09  -0.01    -0.06   0.04   0.08    -0.34  -0.34   0.00
  14   1     0.22   0.23   0.00     0.01  -0.02   0.04    -0.19  -0.19   0.00
  15   1    -0.11  -0.10  -0.23     0.14  -0.39   0.04    -0.01   0.26   0.06
  16   1     0.23   0.23   0.05     0.05  -0.22   0.02    -0.05   0.11   0.03
  17   1     0.22   0.24  -0.05    -0.22   0.04  -0.02    -0.10   0.05   0.03
  18   1    -0.09  -0.11   0.23    -0.40   0.14  -0.04    -0.24   0.00   0.06
                    16                     17                     18
                     A                      A                      A
 Frequencies --  1041.6490              1079.1421              1099.9365
 Red. masses --     2.6255                 1.0107                 2.8944
 Frc consts  --     1.6784                 0.6935                 2.0632
 IR Inten    --     2.6257                 0.0000                 0.0005
 Atom AN      X      Y      Z        X      Y      Z        X      Y      Z
   1   6    -0.11   0.11  -0.02    -0.01  -0.01   0.00    -0.12  -0.12   0.00
   2   6     0.15   0.04  -0.02     0.00   0.00   0.00    -0.04   0.16   0.00
   3   6    -0.04  -0.15  -0.02     0.00   0.00   0.00     0.16  -0.04   0.00
   4   6    -0.11   0.11  -0.02     0.01   0.01   0.00    -0.12  -0.12   0.00
   5   6     0.15   0.04  -0.02     0.00   0.00   0.00    -0.04   0.16   0.00
   6   6    -0.04  -0.15  -0.02     0.00   0.00   0.00     0.16  -0.04   0.00
   7   1    -0.18   0.17   0.24    -0.13  -0.14   0.00    -0.08  -0.08   0.00
   8   1     0.11  -0.11   0.00     0.25   0.26   0.00    -0.25  -0.25   0.00
   9   1    -0.15  -0.04   0.00    -0.10   0.35   0.00    -0.09   0.34   0.00
  10   1     0.24   0.07   0.24     0.05  -0.17   0.00    -0.03   0.10   0.00
  11   1     0.04   0.15   0.00    -0.36   0.09   0.00     0.34  -0.09   0.00
  12   1    -0.06  -0.24   0.24     0.17  -0.05   0.00     0.10  -0.03   0.00
  13   1    -0.18   0.17   0.24     0.13   0.14   0.00    -0.08  -0.08   0.00
  14   1     0.11  -0.11   0.00    -0.25  -0.26   0.00    -0.25  -0.25   0.00
  15   1     0.24   0.07   0.24    -0.05   0.17   0.00    -0.03   0.10   0.00
  16   1    -0.15  -0.04   0.00     0.10  -0.35   0.00    -0.09   0.34   0.00
  17   1     0.04   0.15   0.00     0.36  -0.09   0.00     0.34  -0.09   0.00
  18   1    -0.06  -0.24   0.24    -0.17   0.05   0.00     0.10  -0.03   0.00
                    19                     20                     21
                     A                      A                      A
 Frequencies --  1129.9837              1179.7301              1287.4499
 Red. masses --     1.0382                 2.2569                 1.2876
 Frc consts  --     0.7811                 1.8507                 1.2575
 IR Inten    --     0.0000                 0.0000                 1.6878
 Atom AN      X      Y      Z        X      Y      Z        X      Y      Z
   1   6     0.01   0.02   0.00     0.01  -0.01   0.14     0.00   0.00  -0.09
   2   6     0.01  -0.02   0.00     0.01   0.00  -0.14     0.00  -0.01   0.02
   3   6    -0.02   0.01   0.00     0.00   0.01   0.14     0.00   0.00   0.07
   4   6     0.01   0.02   0.00    -0.01   0.01  -0.14     0.00   0.00  -0.09
   5   6     0.01  -0.02   0.00    -0.01   0.00   0.14     0.00  -0.01   0.02
   6   6    -0.02   0.01   0.00     0.00  -0.01  -0.14     0.01   0.00   0.07
   7   1    -0.29  -0.29   0.00     0.09  -0.09  -0.18    -0.09  -0.02   0.06
   8   1     0.00   0.00   0.00    -0.21   0.21   0.11     0.23   0.01  -0.07
   9   1     0.00   0.00   0.00    -0.29  -0.08  -0.11    -0.10   0.46   0.01
  10   1    -0.11   0.39   0.00     0.12   0.03   0.18     0.05  -0.22  -0.01
  11   1     0.00   0.00   0.00    -0.08  -0.29   0.11    -0.33  -0.04   0.06
  12   1     0.39  -0.10   0.00     0.03   0.12  -0.18     0.16   0.00  -0.05
  13   1    -0.29  -0.29   0.00    -0.09   0.09   0.18    -0.09  -0.02   0.06
  14   1     0.00   0.00   0.00     0.21  -0.21  -0.11     0.23   0.01  -0.07
  15   1    -0.11   0.39   0.00    -0.12  -0.03  -0.18     0.05  -0.22  -0.01
  16   1     0.00   0.00   0.00     0.29   0.08   0.11    -0.10   0.46   0.01
  17   1     0.00   0.00   0.00     0.08   0.29  -0.11    -0.33  -0.04   0.06
  18   1     0.39  -0.10   0.00    -0.03  -0.12   0.18     0.15   0.00  -0.05
                    22                     23                     24
                     A                      A                      A
 Frequencies --  1288.0781              1291.7425              1293.1950
 Red. masses --     1.2879                 1.2462                 1.2444
 Frc consts  --     1.2590                 1.2252                 1.2262
 IR Inten    --     1.6900                 0.0000                 0.0000
 Atom AN      X      Y      Z        X      Y      Z        X      Y      Z
   1   6    -0.01  -0.01   0.03     0.03  -0.04  -0.03     0.04   0.04   0.00
   2   6     0.00   0.00  -0.09    -0.04   0.04  -0.01    -0.04  -0.04  -0.03
   3   6    -0.01   0.00   0.06     0.04  -0.04   0.02     0.04   0.03  -0.03
   4   6    -0.01  -0.01   0.03    -0.03   0.04   0.03    -0.04  -0.04   0.00
   5   6     0.00   0.00  -0.09     0.04  -0.04   0.01     0.04   0.04   0.03
   6   6    -0.01   0.00   0.06    -0.04   0.04  -0.02    -0.04  -0.03   0.03
   7   1    -0.14  -0.17  -0.02     0.07  -0.02  -0.06    -0.32  -0.33  -0.01
   8   1     0.28   0.36   0.03     0.01  -0.05  -0.04     0.22   0.22   0.00
   9   1    -0.18   0.04  -0.08    -0.09   0.26  -0.02     0.00  -0.14  -0.04
  10   1     0.06  -0.02   0.07     0.09  -0.42  -0.03    -0.11   0.18  -0.05
  11   1     0.33  -0.20   0.05     0.23  -0.09   0.02     0.18  -0.01  -0.03
  12   1    -0.16   0.08  -0.04    -0.38   0.06   0.03    -0.25   0.12  -0.05
  13   1    -0.14  -0.17  -0.02    -0.07   0.02   0.06     0.32   0.33   0.01
  14   1     0.28   0.36   0.03    -0.01   0.05   0.04    -0.22  -0.22   0.00
  15   1     0.06  -0.02   0.07    -0.09   0.42   0.03     0.11  -0.18   0.05
  16   1    -0.18   0.03  -0.08     0.09  -0.26   0.02     0.00   0.14   0.04
  17   1     0.33  -0.20   0.05    -0.23   0.09  -0.02    -0.18   0.01   0.03
  18   1    -0.16   0.08  -0.04     0.38  -0.06  -0.03     0.25  -0.12   0.05
                    25                     26                     27
                     A                      A                      A
 Frequencies --  1350.2291              1372.7738              1377.3897
 Red. masses --     1.3047                 1.3168                 1.4802
 Frc consts  --     1.4014                 1.4621                 1.6546
 IR Inten    --     0.0000                 0.0002                 0.0000
 Atom AN      X      Y      Z        X      Y      Z        X      Y      Z
   1   6     0.05   0.05   0.00     0.04   0.05   0.00    -0.04   0.03  -0.02
   2   6    -0.02   0.07   0.00     0.02  -0.07   0.00     0.05  -0.08  -0.01
   3   6    -0.07   0.02   0.00    -0.07   0.02   0.00    -0.09   0.05   0.01
   4   6    -0.05  -0.05   0.00     0.04   0.05   0.00     0.04  -0.03   0.02
   5   6     0.02  -0.07   0.00     0.02  -0.07   0.00    -0.05   0.08   0.01
   6   6     0.07  -0.02   0.00    -0.07   0.02   0.00     0.09  -0.05  -0.01
   7   1    -0.26  -0.26   0.00     0.04   0.05   0.00    -0.04   0.04   0.00
   8   1    -0.11  -0.11   0.00    -0.27  -0.28   0.00     0.10  -0.08  -0.01
   9   1     0.04  -0.17   0.00    -0.11   0.39   0.00    -0.18   0.42  -0.01
  10   1     0.10  -0.35   0.00     0.01  -0.03   0.00    -0.01   0.13   0.00
  11   1     0.17  -0.04   0.00     0.39  -0.10   0.00     0.43  -0.18   0.01
  12   1     0.35  -0.09   0.00    -0.03   0.01   0.00     0.13  -0.01   0.00
  13   1     0.26   0.26   0.00     0.04   0.05   0.00     0.04  -0.04   0.00
  14   1     0.11   0.11   0.00    -0.27  -0.28   0.00    -0.10   0.08   0.01
  15   1    -0.10   0.35   0.00     0.01  -0.03   0.00     0.01  -0.13   0.00
  16   1    -0.04   0.17   0.00    -0.11   0.39   0.00     0.18  -0.42   0.01
  17   1    -0.17   0.04   0.00     0.39  -0.10   0.00    -0.43   0.18  -0.01
  18   1    -0.35   0.09   0.00    -0.03   0.01   0.00    -0.13   0.01   0.00
                    28                     29                     30
                     A                      A                      A
 Frequencies --  1379.0533              1383.8947              1385.6986
 Red. masses --     1.4960                 1.4321                 1.4381
 Frc consts  --     1.6762                 1.6160                 1.6270
 IR Inten    --     0.0000                 0.1288                 0.1305
 Atom AN      X      Y      Z        X      Y      Z        X      Y      Z
   1   6    -0.08  -0.08   0.00    -0.03   0.02   0.00     0.08   0.08   0.00
   2   6     0.03   0.06  -0.02     0.01  -0.10   0.00    -0.04   0.03   0.00
   3   6    -0.06  -0.03  -0.02     0.09   0.00   0.00     0.04  -0.04   0.00
   4   6     0.08   0.08   0.00    -0.03   0.02   0.00     0.08   0.08   0.00
   5   6    -0.03  -0.06   0.02     0.01  -0.10   0.00    -0.04   0.03   0.00
   6   6     0.06   0.03   0.02     0.09   0.00   0.00     0.04  -0.04   0.00
   7   1     0.11   0.11   0.00    -0.03   0.06   0.07    -0.36  -0.36   0.00
   8   1     0.37   0.38   0.00    -0.01   0.03   0.01    -0.17  -0.17   0.00
   9   1    -0.04  -0.29  -0.01    -0.06   0.19  -0.01     0.00  -0.09  -0.01
  10   1     0.06  -0.06   0.00    -0.15   0.43  -0.03     0.00  -0.24  -0.06
  11   1     0.27   0.05  -0.01    -0.19   0.06  -0.01    -0.11   0.00   0.01
  12   1     0.05  -0.06   0.00    -0.40   0.14  -0.03    -0.28   0.02   0.06
  13   1    -0.12  -0.11   0.00    -0.03   0.06   0.07    -0.36  -0.36   0.00
  14   1    -0.37  -0.38   0.00    -0.01   0.03   0.01    -0.17  -0.17   0.00
  15   1    -0.06   0.06   0.00    -0.15   0.43  -0.03     0.00  -0.24  -0.06
  16   1     0.04   0.29   0.01    -0.06   0.19  -0.01     0.00  -0.09  -0.01
  17   1    -0.27  -0.05   0.01    -0.19   0.06  -0.01    -0.11   0.00   0.01
  18   1    -0.05   0.06   0.00    -0.40   0.14  -0.03    -0.28   0.02   0.06
                    31                     32                     33
                     A                      A                      A
 Frequencies --  1484.8091              1485.9754              1489.6692
 Red. masses --     1.0869                 1.0859                 1.0971
 Frc consts  --     1.4118                 1.4127                 1.4344
 IR Inten    --     0.0000                 0.0000                 6.4366
 Atom AN      X      Y      Z        X      Y      Z        X      Y      Z
   1   6     0.02  -0.02  -0.03    -0.01  -0.01   0.00     0.03  -0.03  -0.02
   2   6    -0.01  -0.02  -0.01    -0.03   0.00  -0.03     0.02   0.01   0.01
   3   6    -0.02  -0.01   0.02     0.00   0.03  -0.03    -0.01  -0.02   0.01
   4   6    -0.02   0.02   0.03     0.01   0.01   0.00     0.03  -0.03  -0.02
   5   6     0.01   0.02   0.01     0.03   0.00   0.03     0.02   0.01   0.01
   6   6     0.02   0.01  -0.02     0.00  -0.03   0.03    -0.01  -0.02   0.01
   7   1    -0.09   0.09   0.38     0.00   0.00   0.01    -0.08   0.08   0.36
   8   1    -0.28   0.27  -0.05     0.04   0.05   0.00    -0.27   0.27  -0.04
   9   1     0.17   0.11  -0.02     0.34   0.06  -0.04    -0.21  -0.06   0.02
  10   1     0.06   0.02   0.19     0.11   0.03   0.34    -0.06  -0.04  -0.21
  11   1     0.11   0.19   0.02    -0.05  -0.34  -0.04     0.06   0.22   0.02
  12   1     0.02   0.07  -0.20    -0.03  -0.11   0.33     0.04   0.06  -0.22
  13   1     0.09  -0.09  -0.38     0.00   0.00  -0.01    -0.08   0.08   0.36
  14   1     0.28  -0.28   0.05    -0.04  -0.05   0.00    -0.27   0.27  -0.04
  15   1    -0.06  -0.02  -0.19    -0.11  -0.03  -0.34    -0.06  -0.04  -0.21
  16   1    -0.17  -0.11   0.02    -0.34  -0.06   0.04    -0.21  -0.06   0.02
  17   1    -0.11  -0.19  -0.02     0.05   0.34   0.04     0.06   0.22   0.02
  18   1    -0.02  -0.07   0.20     0.03   0.11  -0.33     0.04   0.06  -0.22
                    34                     35                     36
                     A                      A                      A
 Frequencies --  1491.2559              1494.7086              1509.4268
 Red. masses --     1.0973                 1.0787                 1.0987
 Frc consts  --     1.4377                 1.4199                 1.4749
 IR Inten    --     6.3918                15.1157                 0.0000
 Atom AN      X      Y      Z        X      Y      Z        X      Y      Z
   1   6     0.00   0.00   0.00    -0.02   0.02   0.02    -0.02   0.02   0.02
   2   6    -0.04  -0.01  -0.02     0.02   0.01   0.02    -0.03  -0.01  -0.02
   3   6    -0.01  -0.04   0.02    -0.01  -0.02   0.02    -0.01  -0.03   0.02
   4   6     0.00   0.00   0.00    -0.02   0.02   0.02     0.02  -0.02  -0.02
   5   6    -0.04  -0.01  -0.02     0.02   0.01   0.02     0.03   0.01   0.02
   6   6    -0.01  -0.04   0.02    -0.01  -0.02   0.02     0.01   0.03  -0.02
   7   1    -0.02  -0.02  -0.01     0.07  -0.07  -0.30     0.06  -0.06  -0.28
   8   1     0.00  -0.01   0.00     0.23  -0.22   0.04     0.21  -0.21   0.03
   9   1     0.34   0.09  -0.04    -0.26  -0.07   0.03     0.28   0.08  -0.03
  10   1     0.10   0.01   0.33    -0.09  -0.02  -0.26     0.08   0.02   0.27
  11   1     0.09   0.34   0.04     0.07   0.26   0.03     0.07   0.28   0.03
  12   1     0.01   0.10  -0.33     0.02   0.09  -0.25     0.02   0.08  -0.27
  13   1    -0.02  -0.02  -0.01     0.07  -0.07  -0.30    -0.06   0.06   0.28
  14   1     0.00  -0.01   0.00     0.23  -0.22   0.04    -0.21   0.21  -0.03
  15   1     0.10   0.01   0.33    -0.09  -0.02  -0.26    -0.08  -0.02  -0.27
  16   1     0.34   0.09  -0.04    -0.26  -0.07   0.03    -0.28  -0.08   0.03
  17   1     0.09   0.34   0.04     0.07   0.26   0.03    -0.07  -0.28  -0.03
  18   1     0.01   0.10  -0.33     0.02   0.09  -0.25    -0.02  -0.08   0.27
                    37                     38                     39
                     A                      A                      A
 Frequencies --  2990.9850              2991.4077              2992.1398
 Red. masses --     1.0710                 1.0708                 1.0748
 Frc consts  --     5.6450                 5.6457                 5.6693
 IR Inten    --    25.4265                26.1177                 0.0039
 Atom AN      X      Y      Z        X      Y      Z        X      Y      Z
   1   6     0.01  -0.01  -0.04     0.00   0.00   0.00     0.00   0.00  -0.03
   2   6     0.00   0.00   0.02    -0.01   0.00  -0.04     0.00   0.00   0.03
   3   6     0.00  -0.01   0.03     0.00  -0.01   0.03     0.00   0.00  -0.03
   4   6     0.01  -0.01  -0.04     0.00   0.00   0.01     0.00   0.00   0.03
   5   6     0.00   0.00   0.02    -0.01   0.00  -0.04     0.00   0.00  -0.03
   6   6     0.00  -0.01   0.02     0.00  -0.01   0.03     0.00   0.00   0.03
   7   1    -0.07   0.07  -0.05     0.01  -0.01   0.01    -0.02   0.02  -0.02
   8   1    -0.02   0.02   0.55     0.00   0.00  -0.07    -0.02   0.02   0.42
   9   1    -0.01   0.00  -0.22     0.03   0.01   0.51    -0.02  -0.01  -0.40
  10   1    -0.04  -0.02   0.02     0.09   0.02  -0.05    -0.02  -0.01   0.02
  11   1     0.01   0.02  -0.34     0.01   0.02  -0.45    -0.01  -0.02   0.40
  12   1     0.02   0.06   0.03     0.02   0.08   0.04    -0.01  -0.02  -0.02
  13   1    -0.07   0.07  -0.05     0.01  -0.01   0.01     0.02  -0.02   0.02
  14   1    -0.02   0.02   0.57     0.00   0.00  -0.07     0.02  -0.02  -0.40
  15   1    -0.04  -0.02   0.02     0.09   0.02  -0.05     0.02   0.01  -0.02
  16   1    -0.01   0.00  -0.23     0.03   0.01   0.52     0.02   0.01   0.40
  17   1     0.01   0.02  -0.33     0.01   0.02  -0.45     0.01   0.02  -0.41
  18   1     0.02   0.06   0.03     0.02   0.08   0.04     0.01   0.03   0.02
                    40                     41                     42
                     A                      A                      A
 Frequencies --  2999.3769              2999.6168              3003.5443
 Red. masses --     1.0626                 1.0624                 1.0597
 Frc consts  --     5.6324                 5.6322                 5.6326
 IR Inten    --     0.0001                 0.0000                87.5089
 Atom AN      X      Y      Z        X      Y      Z        X      Y      Z
   1   6     0.02  -0.02  -0.03     0.00   0.00   0.00     0.02  -0.02  -0.02
   2   6    -0.01   0.00  -0.01    -0.02  -0.01  -0.03    -0.02  -0.01  -0.02
   3   6     0.00  -0.01   0.02     0.00   0.02  -0.03     0.01   0.02  -0.02
   4   6    -0.02   0.02   0.03     0.00   0.00   0.00     0.02  -0.02  -0.02
   5   6     0.01   0.00   0.01     0.02   0.01   0.03    -0.02  -0.01  -0.02
   6   6     0.00   0.01  -0.02     0.00  -0.02   0.03     0.01   0.02  -0.02
   7   1    -0.18   0.18  -0.11    -0.03   0.03  -0.02    -0.18   0.18  -0.10
   8   1    -0.02   0.02   0.49     0.00   0.00   0.08    -0.01   0.01   0.30
   9   1     0.01   0.00   0.18     0.02   0.00   0.47     0.01   0.00   0.30
  10   1     0.09   0.02  -0.04     0.24   0.07  -0.10     0.25   0.07  -0.11
  11   1     0.01   0.01  -0.32     0.00  -0.02   0.39     0.00  -0.01   0.30
  12   1     0.04   0.16   0.07    -0.05  -0.20  -0.09    -0.06  -0.25  -0.10
  13   1     0.18  -0.18   0.11     0.03  -0.03   0.02    -0.18   0.18  -0.10
  14   1     0.02  -0.02  -0.49     0.00   0.00  -0.08    -0.01   0.01   0.30
  15   1    -0.09  -0.02   0.04    -0.23  -0.07   0.10     0.25   0.07  -0.10
  16   1    -0.01   0.00  -0.18    -0.02   0.00  -0.47     0.01   0.00   0.30
  17   1    -0.01  -0.01   0.32     0.00   0.02  -0.39     0.00  -0.01   0.30
  18   1    -0.04  -0.16  -0.07     0.05   0.20   0.09    -0.06  -0.25  -0.10
                    43                     44                     45
                     A                      A                      A
 Frequencies --  3044.2162              3044.4315              3045.5569
 Red. masses --     1.0906                 1.0903                 1.1015
 Frc consts  --     5.9548                 5.9541                 6.0193
 IR Inten    --   129.2342               129.9268                 0.0169
 Atom AN      X      Y      Z        X      Y      Z        X      Y      Z
   1   6    -0.01   0.01   0.00    -0.03   0.03  -0.02     0.01  -0.01   0.01
   2   6    -0.04  -0.01   0.02    -0.01   0.00   0.01    -0.04  -0.01   0.04
   3   6    -0.01  -0.03  -0.02     0.01   0.03   0.02     0.01   0.03   0.03
   4   6    -0.01   0.01   0.00    -0.03   0.03  -0.02    -0.01   0.01  -0.01
   5   6    -0.04  -0.01   0.02    -0.01   0.00   0.01     0.04   0.01  -0.04
   6   6    -0.01  -0.03  -0.02     0.01   0.03   0.02    -0.01  -0.02  -0.03
   7   1     0.07  -0.07   0.04     0.37  -0.37   0.20    -0.07   0.07  -0.04
   8   1     0.00   0.00   0.02    -0.01   0.01   0.10     0.00  -0.01  -0.07
   9   1    -0.01   0.00  -0.11    -0.01   0.00  -0.04    -0.02  -0.01  -0.27
  10   1     0.49   0.13  -0.19     0.17   0.05  -0.07     0.45   0.12  -0.17
  11   1     0.00  -0.01   0.08     0.00   0.01  -0.08     0.00   0.02  -0.20
  12   1     0.10   0.38   0.15    -0.09  -0.34  -0.13    -0.08  -0.32  -0.12
  13   1     0.07  -0.07   0.04     0.36  -0.36   0.19     0.08  -0.08   0.04
  14   1     0.00   0.00   0.02    -0.01   0.01   0.09     0.00   0.01   0.07
  15   1     0.48   0.13  -0.19     0.17   0.05  -0.07    -0.45  -0.12   0.17
  16   1    -0.01   0.00  -0.10    -0.01   0.00  -0.04     0.02   0.01   0.27
  17   1     0.00  -0.01   0.08     0.00   0.01  -0.07     0.00  -0.02   0.20
  18   1     0.10   0.39   0.15    -0.09  -0.34  -0.13     0.08   0.31   0.12
                    46                     47                     48
                     A                      A                      A
 Frequencies --  3045.6723              3048.6587              3052.8815
 Red. masses --     1.1012                 1.0863                 1.1047
 Frc consts  --     6.0185                 5.9489                 6.0660
 IR Inten    --     0.0213                 0.0066               147.4015
 Atom AN      X      Y      Z        X      Y      Z        X      Y      Z
   1   6     0.02  -0.02   0.04    -0.02   0.02  -0.01     0.02  -0.02   0.03
   2   6    -0.01   0.00   0.01    -0.03  -0.01   0.01    -0.02  -0.01   0.03
   3   6    -0.01  -0.03  -0.03    -0.01  -0.03  -0.01     0.01   0.02   0.03
   4   6    -0.03   0.02  -0.04     0.02  -0.02   0.01     0.02  -0.02   0.03
   5   6     0.01   0.00  -0.01     0.03   0.01  -0.01    -0.02  -0.01   0.03
   6   6     0.01   0.03   0.03     0.01   0.03   0.01     0.01   0.02   0.03
   7   1    -0.31   0.31  -0.16     0.29  -0.28   0.15    -0.21   0.20  -0.11
   8   1     0.02  -0.02  -0.26    -0.01   0.01   0.03     0.02  -0.02  -0.27
   9   1    -0.01  -0.01  -0.08    -0.01   0.00  -0.01    -0.02  -0.01  -0.27
  10   1     0.15   0.04  -0.06     0.34   0.09  -0.14     0.26   0.07  -0.10
  11   1    -0.01  -0.02   0.19     0.00  -0.01   0.02     0.01   0.02  -0.27
  12   1     0.09   0.33   0.13     0.10   0.36   0.14    -0.07  -0.27  -0.10
  13   1     0.32  -0.31   0.17    -0.29   0.29  -0.15    -0.21   0.21  -0.11
  14   1    -0.02   0.02   0.26     0.01  -0.01  -0.03     0.02  -0.02  -0.28
  15   1    -0.14  -0.04   0.05    -0.35  -0.10   0.14     0.26   0.07  -0.10
  16   1     0.01   0.01   0.07     0.01   0.00   0.01    -0.02  -0.01  -0.27
  17   1     0.01   0.02  -0.19     0.00   0.01  -0.02     0.01   0.02  -0.27
  18   1    -0.09  -0.34  -0.13    -0.09  -0.36  -0.14    -0.07  -0.27  -0.10

 -------------------
 - Thermochemistry -
 -------------------
 Temperature   298.150 Kelvin.  Pressure   1.00000 Atm.
 Atom  1 has atomic number  6 and mass  12.00000
 Atom  2 has atomic number  6 and mass  12.00000
 Atom  3 has atomic number  6 and mass  12.00000
 Atom  4 has atomic number  6 and mass  12.00000
 Atom  5 has atomic number  6 and mass  12.00000
 Atom  6 has atomic number  6 and mass  12.00000
 Atom  7 has atomic number  1 and mass   1.00783
 Atom  8 has atomic number  1 and mass   1.00783
 Atom  9 has atomic number  1 and mass   1.00783
 Atom 10 has atomic number  1 and mass   1.00783
 Atom 11 has atomic number  1 and mass   1.00783
 Atom 12 has atomic number  1 and mass   1.00783
 Atom 13 has atomic number  1 and mass   1.00783
 Atom 14 has atomic number  1 and mass   1.00783
 Atom 15 has atomic number  1 and mass   1.00783
 Atom 16 has atomic number  1 and mass   1.00783
 Atom 17 has atomic number  1 and mass   1.00783
 Atom 18 has atomic number  1 and mass   1.00783
 Molecular mass:    84.09390 amu.
 Principal axes and moments of inertia in atomic units:
                           1         2         3
     EIGENVALUES --   420.83937 421.03455 738.55619
           X            0.99992   0.01247  -0.00001
           Y           -0.01247   0.99992   0.00000
           Z            0.00001   0.00000   1.00000
 This molecule is an asymmetric top.
 Rotational symmetry number  1.
 Rotational temperatures (Kelvin)      0.20581     0.20572     0.11727
 Rotational constants (GHZ):           4.28843     4.28644     2.44361
 Zero-point vibrational energy     445097.1 (Joules/Mol)
                                  106.38077 (Kcal/Mol)
 Warning -- explicit consideration of   6 degrees of freedom as
           vibrations may cause significant error
 Vibrational temperatures:    329.66   335.74   534.73   621.89   627.82
          (Kelvin)            747.58  1142.70  1145.56  1151.55  1243.91
                             1250.27  1320.60  1323.88  1490.66  1495.49
                             1498.70  1552.64  1582.56  1625.79  1697.37
                             1852.35  1853.25  1858.53  1860.62  1942.68
                             1975.11  1981.75  1984.15  1991.11  1993.71
                             2136.31  2137.98  2143.30  2145.58  2150.55
                             2171.73  4303.36  4303.96  4305.02  4315.43
                             4315.77  4321.43  4379.94  4380.25  4381.87
                             4382.04  4386.33  4392.41
 
 Zero-point correction=                           0.169529 (Hartree/Particle)
 Thermal correction to Energy=                    0.175266
 Thermal correction to Enthalpy=                  0.176210
 Thermal correction to Gibbs Free Energy=         0.140731
 Sum of electronic and zero-point Energies=           -235.775347
 Sum of electronic and thermal Energies=              -235.769610
 Sum of electronic and thermal Enthalpies=            -235.768666
 Sum of electronic and thermal Free Energies=         -235.804144
 
                     E (Thermal)             CV                S
                      KCal/Mol        Cal/Mol-Kelvin    Cal/Mol-Kelvin
 Total                  109.981             22.916             74.671
 Electronic               0.000              0.000              0.000
 Translational            0.889              2.981             39.202
 Rotational               0.889              2.981             26.373
 Vibrational            108.203             16.954              9.096
 Vibration  1             0.652              1.797              1.886
 Vibration  2             0.654              1.790              1.853
 Vibration  3             0.743              1.530              1.073
 Vibration  4             0.793              1.400              0.851
 Vibration  5             0.797              1.391              0.838
 Vibration  6             0.875              1.207              0.611
                       Q            Log10(Q)             Ln(Q)
 Total Bot       0.185468D-64        -64.731730       -149.050317
 Total V=0       0.176127D+14         13.245826         30.499641
 Vib (Bot)       0.472512D-77        -77.325587       -178.048745
 Vib (Bot)  1    0.859944D+00         -0.065530         -0.150888
 Vib (Bot)  2    0.842789D+00         -0.074281         -0.171039
 Vib (Bot)  3    0.489299D+00         -0.310426         -0.714782
 Vib (Bot)  4    0.402407D+00         -0.395334         -0.910291
 Vib (Bot)  5    0.397313D+00         -0.400868         -0.923032
 Vib (Bot)  6    0.310766D+00         -0.507566         -1.168714
 Vib (V=0)       0.448713D+01          0.651969          1.501214
 Vib (V=0)  1    0.149474D+01          0.174565          0.401951
 Vib (V=0)  2    0.147995D+01          0.170246          0.392005
 Vib (V=0)  3    0.119958D+01          0.079030          0.181972
 Vib (V=0)  4    0.114182D+01          0.057597          0.132622
 Vib (V=0)  5    0.113864D+01          0.056385          0.129832
 Vib (V=0)  6    0.108871D+01          0.036911          0.084991
 Electronic      0.100000D+01          0.000000          0.000000
 Translational   0.303111D+08          7.481602         17.227025
 Rotational      0.129496D+06          5.112255         11.771403
 ***** Axes restored to original set *****
 -------------------------------------------------------------------
 Center     Atomic                   Forces (Hartrees/Bohr)
 Number     Number              X              Y              Z
 -------------------------------------------------------------------
    1          6          -0.000038119    0.000287328   -0.000436854
    2          6          -0.000353034   -0.000081653    0.000259972
    3          6           0.000217287    0.000328722    0.000172423
    4          6           0.000029442   -0.000291826    0.000434870
    5          6           0.000354279    0.000085996   -0.000257214
    6          6          -0.000219348   -0.000327053   -0.000177940
    7          1          -0.000162879   -0.000061608   -0.000016668
    8          1           0.000048377   -0.000173605    0.000116059
    9          1           0.000207650    0.000015572   -0.000162275
   10          1          -0.000012271    0.000138283    0.000014996
   11          1          -0.000091485   -0.000177366   -0.000122240
   12          1           0.000005309   -0.000095577    0.000106781
   13          1           0.000167592    0.000065572    0.000016686
   14          1          -0.000044654    0.000174250   -0.000115651
   15          1           0.000012428   -0.000140252   -0.000014004
   16          1          -0.000207266   -0.000016791    0.000161767
   17          1           0.000091791    0.000176968    0.000123782
   18          1          -0.000005097    0.000093042   -0.000104491
 -------------------------------------------------------------------
 Cartesian Forces:  Max     0.000436854 RMS     0.000182740

 GradGradGradGradGradGradGradGradGradGradGradGradGradGradGradGradGradGrad
 Berny optimization.
 Search for a local minimum.
 Step number   1 out of a maximum of   2
 All quantities printed in internal units (Hartrees-Bohrs-Radians)
 Second derivative matrix not updated -- analytic derivatives used.
     Eigenvalues ---    0.00341   0.00353   0.00764   0.01374   0.01799
     Eigenvalues ---    0.01823   0.04282   0.04294   0.04456   0.04674
     Eigenvalues ---    0.04688   0.04858   0.05083   0.05112   0.06269
     Eigenvalues ---    0.06414   0.06620   0.06633   0.08040   0.08063
     Eigenvalues ---    0.08858   0.10218   0.10247   0.14575   0.15011
     Eigenvalues ---    0.15043   0.16895   0.16898   0.19264   0.20772
     Eigenvalues ---    0.21608   0.32591   0.32759   0.48356   0.48564
     Eigenvalues ---    0.56723   0.63154   0.66515   0.66549   0.74479
     Eigenvalues ---    0.74832   0.75389   0.80537   0.80888   0.83506
     Eigenvalues ---    0.83605   0.84230   0.91042
 Angle between quadratic step and forces=  69.79 degrees.
 Linear search not attempted -- first point.
 TrRot= -0.000006  0.000001 -0.000003 -0.000018 -0.000022 -0.000018
 Variable       Old X    -DE/DX   Delta X   Delta X   Delta X     New X
                                 (Linear)    (Quad)   (Total)
    X1       -2.13087  -0.00004   0.00000   0.00006   0.00012  -2.13074
    Y1        1.10496   0.00029   0.00000   0.00132   0.00140   1.10635
    Z1       -1.45058  -0.00044   0.00000  -0.00150  -0.00156  -1.45214
    X2       -2.12392  -0.00035   0.00000  -0.00022  -0.00022  -2.12414
    Y2        1.11850  -0.00008   0.00000  -0.00060  -0.00053   1.11797
    Z2        1.45098   0.00026   0.00000  -0.00013  -0.00018   1.45079
    X3        0.57700   0.00022   0.00000   0.00087   0.00085   0.57784
    Y3        1.10437   0.00033   0.00000   0.00077   0.00075   1.10512
    Z3        2.51213   0.00017   0.00000   0.00016   0.00017   2.51230
    X4        2.13074   0.00003   0.00000   0.00006  -0.00001   2.13072
    Y4       -1.10510  -0.00029   0.00000  -0.00118  -0.00125  -1.10635
    Z4        1.45062   0.00043   0.00000   0.00145   0.00150   1.45212
    X5        2.12398   0.00035   0.00000   0.00015   0.00014   2.12412
    Y5       -1.11844   0.00009   0.00000   0.00054   0.00046  -1.11797
    Z5       -1.45093  -0.00026   0.00000   0.00009   0.00013  -1.45080
    X6       -0.57689  -0.00022   0.00000  -0.00099  -0.00098  -0.57787
    Y6       -1.10429  -0.00033   0.00000  -0.00084  -0.00082  -1.10511
    Z6       -2.51219  -0.00018   0.00000  -0.00011  -0.00012  -2.51232
    X7       -4.07239  -0.00016   0.00000  -0.00045  -0.00037  -4.07277
    Y7        1.01913  -0.00006   0.00000   0.00267   0.00282   1.02195
    Z7       -2.16081  -0.00002   0.00000  -0.00144  -0.00154  -2.16235
    X8       -1.33412   0.00005   0.00000   0.00357   0.00372  -1.33040
    Y8        2.89266  -0.00017   0.00000  -0.00019  -0.00014   2.89252
    Z8       -2.14220   0.00012   0.00000   0.00049   0.00045  -2.14175
    X9       -3.13678   0.00021   0.00000   0.00412   0.00405  -3.13273
    Y9       -0.55595   0.00002   0.00000  -0.00407  -0.00396  -0.55990
    Z9        2.14304  -0.00016   0.00000  -0.00390  -0.00397   2.13907
   X10       -3.16219  -0.00001   0.00000  -0.00196  -0.00192  -3.16411
   Y10        2.76175   0.00014   0.00000  -0.00214  -0.00203   2.75972
   Z10        2.16046   0.00001   0.00000   0.00162   0.00155   2.16201
   X11        1.51118  -0.00009   0.00000   0.00047   0.00052   1.51170
   Y11        2.89157  -0.00018   0.00000  -0.00102  -0.00107   2.89050
   Z11        2.02033  -0.00012   0.00000  -0.00458  -0.00454   2.01579
   X12        0.53224   0.00001   0.00000   0.00162   0.00155   0.53379
   Y12        1.01971  -0.00010   0.00000   0.00208   0.00207   1.02177
   Z12        4.57912   0.00011   0.00000   0.00049   0.00050   4.57962
   X13        4.07219   0.00017   0.00000   0.00065   0.00055   4.07274
   Y13       -1.01975   0.00007   0.00000  -0.00206  -0.00220  -1.02194
   Z13        2.16107   0.00002   0.00000   0.00118   0.00127   2.16234
   X14        1.33352  -0.00004   0.00000  -0.00298  -0.00313   1.33039
   Y14       -2.89268   0.00017   0.00000   0.00022   0.00017  -2.89251
   Z14        2.14204  -0.00012   0.00000  -0.00033  -0.00031   2.14174
   X15        3.16234   0.00001   0.00000   0.00180   0.00175   3.16408
   Y15       -2.76157  -0.00014   0.00000   0.00196   0.00185  -2.75972
   Z15       -2.16054  -0.00001   0.00000  -0.00155  -0.00148  -2.16202
   X16        3.13682  -0.00021   0.00000  -0.00417  -0.00411   3.13271
   Y16        0.55612  -0.00002   0.00000   0.00389   0.00378   0.55990
   Z16       -2.14277   0.00016   0.00000   0.00362   0.00369  -2.13908
   X17       -1.51099   0.00009   0.00000  -0.00067  -0.00073  -1.51173
   Y17       -2.89161   0.00018   0.00000   0.00106   0.00112  -2.89050
   Z17       -2.02069   0.00012   0.00000   0.00493   0.00489  -2.01580
   X18       -0.53205  -0.00001   0.00000  -0.00182  -0.00176  -0.53381
   Y18       -1.01935   0.00009   0.00000  -0.00244  -0.00242  -1.02177
   Z18       -4.57918  -0.00010   0.00000  -0.00044  -0.00045  -4.57963
         Item               Value     Threshold  Converged?
 Maximum Force            0.000437     0.000450     YES
 RMS     Force            0.000183     0.000300     YES
 Maximum Displacement     0.004889     0.001800     NO 
 RMS     Displacement     0.002056     0.001200     NO 
 Predicted change in Energy=-3.508069D-06
 GradGradGradGradGradGradGradGradGradGradGradGradGradGradGradGradGradGrad


 Test job not archived.
 1\1\GINC-CLUSTER-BIO\Freq\RB3LYP\6-311+G(d,p)\C6H12\CHAQUIN\22-Oct-201
 2\0\\# B3LYP 6-311+G** GEOM=CHECKPOINT FREQ POP=NONE TEST\\*** Vibrati
 ons cyclohexane**** 0 1\\0,1\C,-1.127605755,0.5847175799,-0.7676138185
 \C,-1.123929147,0.5918857473,0.7678230187\C,0.3053333438,0.5844051758,
 1.3293625769\C,1.1275365691,-0.5847931401,0.767637365\C,1.1239610275,-
 0.5918509428,-0.7678013127\C,-0.3052745402,-0.5843673215,-1.3293962096
 \H,-2.1550184867,0.5393023419,-1.1434527537\H,-0.7059873053,1.53073036
 31,-1.1336035896\H,-1.6599147251,-0.2941943708,1.1340470224\H,-1.67335
 94581,1.4614553391,1.1432661058\H,0.7996836181,1.530151258,1.069114708
 3\H,0.2816490971,0.5396068394,2.4231659933\H,2.1549100809,-0.539626031
 4,1.1435878102\H,0.7056680922,-1.5307412261,1.1335201912\H,1.673436124
 8,-1.4613610215,-1.1433090053\H,1.6599349034,0.2942873441,-1.133906776
 2\H,-0.7995833851,-1.5301755202,-1.0693023298\H,-0.2815475459,-0.53941
 79068,-2.4231970947\\Version=AM64L-G03RevC.02\State=1-A\HF=-235.944875
 4\RMSD=7.576e-09\RMSF=1.827e-04\Dipole=-0.0000044,0.0000009,-0.0000023
 \DipoleDeriv=0.1016924,0.0376624,-0.0041828,0.0207767,0.1308097,-0.032
 4462,0.0053666,-0.0259204,0.0750555,0.0932782,0.0154394,-0.0247332,0.0
 323404,0.138214,-0.0223433,-0.0249413,-0.0106673,0.0736319,0.0770132,0
 .038262,-0.0038749,0.0382883,0.1302156,-0.0075129,-0.0131581,-0.025884
 8,0.098129,0.1017101,0.0376566,-0.0041667,0.0207802,0.1307763,-0.03244
 ,0.0053734,-0.0259195,0.0750371,0.0932697,0.0154469,-0.0247323,0.03233
 67,0.1382148,-0.0223303,-0.0249483,-0.0106465,0.0736258,0.0770263,0.03
 82613,-0.0038524,0.0382878,0.1302353,-0.0075159,-0.0131536,-0.0258904,
 0.0981207,-0.1889051,0.0339843,-0.0974071,0.0018588,0.0457075,-0.01835
 38,-0.0794174,-0.005806,-0.0160538,0.0132211,-0.0963962,0.060623,-0.04
 49502,-0.1452042,0.0618595,0.0317869,0.0417881,-0.0146131,-0.0273095,-
 0.0730418,0.0162545,-0.124581,-0.1046295,0.0850892,0.0161995,0.0498656
 ,-0.0147995,-0.047641,0.1001752,0.0405076,0.1323259,-0.0956959,-0.0904
 467,0.0405149,-0.0684576,-0.0160249,-0.0422744,-0.0739396,0.0101802,-0
 .0739084,-0.1451181,0.0193309,0.0391477,0.0747214,0.0406402,0.0209252,
 0.0178549,0.0026195,0.0178416,0.0457041,0.004813,-0.0154868,-0.0296315
 ,-0.2259629,-0.1888829,0.0340275,-0.0974201,0.0019209,0.0457124,-0.018
 3332,-0.0794386,-0.0057919,-0.0160691,0.0131804,-0.0964438,0.0606312,-
 0.0449901,-0.1451815,0.0618428,0.0317906,0.0417693,-0.0145914,-0.04764
 85,0.1001764,0.0405196,0.1323245,-0.0956727,-0.0904476,0.0405237,-0.06
 8468,-0.0160353,-0.0273072,-0.0730468,0.016244,-0.1245894,-0.1046503,0
 .0850716,0.016191,0.0498468,-0.0147793,-0.042271,-0.0739348,0.0101614,
 -0.0739,-0.1451414,0.0193096,0.0391282,0.0746959,0.040656,0.0209229,0.
 017856,0.0026285,0.0178375,0.0457037,0.0048533,-0.0154785,-0.0296032,-
 0.225967\Polar=70.6234127,-3.465668,65.8064848,1.2304129,2.3663249,71.
 5842887\PG=C01 [X(C6H12)]\NImag=0\\0.56940314,0.03918415,0.51689292,0.
 03041349,-0.03042975,0.46466752,-0.08118315,0.00146695,0.00140688,0.49
 646154,0.00034707,-0.08077914,0.00141322,-0.01118240,0.58982223,0.0021
 2178,0.00132602,-0.17740490,-0.04527250,0.00787307,0.46115353,-0.00037
 431,-0.00083109,-0.00811890,-0.16477195,-0.00234740,-0.03199369,0.4539
 4321,0.00007661,0.00106315,0.00083475,-0.00140047,-0.08047685,-0.00170
 115,0.04508600,0.51592439,-0.03513405,-0.00054849,-0.01762412,-0.03086
 458,-0.00095035,-0.09303789,-0.01321136,-0.02522038,0.57756649,0.00233
 648,0.00003329,0.00079514,-0.02334908,0.02758923,0.01040674,-0.1059735
 1,0.03844560,0.01747990,0.56944285,0.00003314,-0.00038685,0.00040863,0
 .00582153,-0.00035045,0.00203450,0.03937001,-0.13882227,-0.02665275,0.
 03917016,0.51686517,0.00079522,0.00040871,0.00046908,-0.00391698,0.009
 46950,0.00695909,0.01708652,-0.02756476,-0.09429191,0.03043609,-0.0304
 2869,0.46466134,-0.02334925,0.00581903,-0.00391778,0.00063886,-0.00138
 319,-0.00018047,0.00089405,-0.00001839,0.01915857,-0.08118479,0.001469
 40,0.00141230,0.49647148,0.02758435,-0.00034712,0.00946918,-0.00138308
 ,0.00150793,0.00087788,0.00097096,-0.00007513,-0.02834938,0.00034595,-
 0.08077690,0.00142116,-0.01118497,0.58982361,0.01040829,0.00203482,0.0
 0696006,-0.00018052,0.00087779,0.00026027,0.00527160,-0.00593646,-0.01
 654224,0.00212858,0.00133112,-0.17740064,-0.04527437,0.00789397,0.4611
 4930,-0.10598143,0.03937017,0.01709301,0.00089639,0.00096791,0.0052693
 0,0.00007635,-0.00032045,0.00001248,-0.00037220,-0.00083032,-0.0081184
 6,-0.16477479,-0.00234521,-0.03200032,0.45395157,0.03844791,-0.1388123
 8,-0.02756147,-0.00001835,-0.00007392,-0.00593537,-0.00032055,-0.00042
 784,-0.00015708,0.00007993,0.00106297,0.00083726,-0.00140202,-0.080478
 58,-0.00170263,0.04508488,0.51593928,0.01748500,-0.02665384,-0.0942944
 5,0.01916043,-0.02834499,-0.01653817,0.00001258,-0.00015697,0.00276729
 ,-0.03513435,-0.00054628,-0.01762847,-0.03086965,-0.00095099,-0.093040
 06,-0.01320205,-0.02523132,0.57753946,-0.27138983,-0.01302156,-0.08049
 263,0.00168990,-0.00029711,0.00097851,0.00130692,0.00002834,-0.0001644
 7,0.00040916,-0.00022102,0.00046655,-0.00015330,0.00382664,0.00245421,
 -0.01600347,-0.00172938,-0.00546230,0.29508441,-0.01445836,-0.04865536
 ,-0.00448451,0.00019656,-0.00085773,0.00098562,-0.00008808,0.00051644,
 -0.00039254,-0.00012215,0.00001144,-0.00031953,0.00147404,-0.00416728,
 -0.00277131,0.02594642,0.00071066,0.00935635,0.01245228,0.05129976,-0.
 07968680,-0.00391509,-0.07550347,-0.03287606,-0.00206104,-0.01178402,0
 .00247170,0.00015972,-0.00687155,0.00041302,-0.00035939,-0.00011485,0.
 00120291,-0.00236377,-0.00072369,0.01258693,0.00139680,0.00432745,0.08
 726400,0.00624424,0.08434596,-0.08724010,-0.08285100,0.03022763,-0.001
 02331,-0.00044755,0.00070805,0.00057030,0.00082746,-0.00041937,-0.0001
 0625,0.00012776,-0.00006295,0.00142794,0.00056837,-0.00038908,0.006295
 87,0.01619682,-0.00573028,-0.01231675,-0.02638216,0.01018670,0.0915522
 1,-0.08197318,-0.22681772,0.06961157,-0.00023501,0.00019999,0.00010058
 ,-0.00003056,-0.00003762,-0.00022429,0.00029707,0.00008124,-0.00000512
 ,-0.00151152,0.00068870,0.00039100,-0.00992244,-0.02487248,0.00725723,
 -0.00149011,-0.00163961,0.00005113,0.08959681,0.25098983,0.02972693,0.
 06925792,-0.07290553,0.01439191,0.02969938,-0.01416961,0.00122683,0.00
 076394,0.00159270,-0.00015023,-0.00007786,-0.00017070,-0.00037609,0.00
 055813,0.00002174,-0.00487877,-0.01221778,0.00359720,-0.00377185,-0.00
 966834,0.00343725,-0.03618325,-0.07465359,0.08329142,0.00003313,0.0006
 3486,-0.00003621,-0.10416792,-0.09385726,0.03986522,-0.01766885,-0.026
 56256,0.00925775,0.00136787,-0.00145751,0.00058887,-0.00017473,0.00024
 163,-0.00000361,-0.00015678,-0.00056865,-0.00001756,0.00053880,0.00045
 202,0.00021681,0.00103764,0.00000870,-0.00041508,0.11519573,0.00032159
 ,-0.00088759,0.00056068,-0.09455356,-0.21006164,0.06458073,-0.00042130
 ,-0.00081019,-0.00056112,0.00048312,0.00072690,-0.00010781,0.00008206,
 0.00014358,-0.00005788,0.00026209,0.00072196,-0.00048871,0.00040911,0.
 00023216,0.00059112,0.00051035,0.00139714,-0.00004640,0.10598240,0.227
 37241,0.01631834,0.02857078,-0.01457274,0.03991669,0.06405733,-0.07287
 030,-0.00724371,-0.01093992,0.00358085,0.00070481,-0.00002810,-0.00000
 091,-0.00000771,-0.00016996,-0.00017128,-0.00013669,0.00142617,0.00171
 239,-0.00046139,-0.00009161,0.00128692,0.00019940,-0.00037005,-0.00675
 933,-0.04077978,-0.07233779,0.08345429,0.00001767,-0.00092323,0.000276
 56,-0.10842934,0.09887896,0.04215188,-0.01611180,0.02590916,0.01079150
 ,-0.00534852,-0.00212775,-0.00366092,0.00030424,-0.00020649,-0.0005442
 1,0.00080629,-0.00044439,-0.00023465,0.00038822,-0.00034024,0.00027716
 ,-0.00006152,0.00002740,0.00022409,0.00794903,-0.01230509,-0.00578472,
 0.11910820,-0.00143247,0.00079041,0.00132296,0.10032934,-0.21169665,-0
 .06848726,-0.00178166,0.00079686,0.00086378,0.00022343,0.00101803,0.00
 042244,-0.00030028,0.00012414,0.00020585,-0.00032661,0.00102675,-0.000
 34688,-0.00031510,-0.00006750,-0.00056702,-0.00001650,0.00084006,-0.00
 043691,0.01260488,-0.02191233,-0.00860217,-0.10995224,0.22734335,0.017
 14713,-0.02827322,-0.01186263,0.04209725,-0.06741009,-0.07511293,-0.00
 604196,0.01113323,0.00433414,-0.00261870,-0.00036488,-0.00072475,-0.00
 053741,0.00014022,-0.00011272,-0.00128061,0.00212322,-0.00686811,-0.00
 063457,-0.00009577,0.00112460,0.00036957,0.00053128,0.00129242,-0.0057
 7776,0.00838968,0.00342598,-0.04459499,0.07506500,0.08398989,0.0012105
 4,-0.00040797,0.00141669,-0.01752803,-0.02778143,0.00788381,-0.0952219
 2,-0.09475285,0.02679367,0.00751661,0.01726941,-0.00434686,0.00046470,
 -0.00031196,-0.00073748,-0.00010737,0.00013229,-0.00013114,0.00021772,
 0.00049219,0.00016957,0.00036910,0.00056346,-0.00099553,-0.00565327,0.
 00023408,-0.00302742,0.00095151,0.00039202,0.00059400,0.10901926,0.000
 18416,-0.00005406,0.00002786,-0.00013847,0.00021862,0.00014445,-0.0947
 9104,-0.22676767,0.05127607,-0.01025228,-0.02508662,0.00626298,-0.0009
 2876,0.00078219,0.00133569,0.00013491,0.00008786,-0.00025319,0.0000630
 7,0.00018935,-0.00020267,-0.00000668,0.00012086,-0.00066570,0.00034861
 ,0.00140032,0.00012622,-0.00046397,0.00084388,-0.00022669,0.10214324,0
 .25102144,-0.00011207,-0.00103806,0.00091228,-0.00580169,-0.01046338,0
 .00240672,0.02714563,0.05208593,-0.06509684,-0.00508679,-0.01089816,0.
 00213938,-0.00073307,-0.00065946,0.00102115,-0.00004118,-0.00007822,-0
 .00018018,0.00014917,0.00016920,0.00014029,-0.00002249,0.00023972,0.00
 003238,-0.00241329,-0.00045968,-0.00006687,0.00073672,0.00016609,0.000
 32463,-0.02945624,-0.05621836,0.06600291,-0.00656434,-0.00014526,-0.00
 060981,0.00078446,0.00180126,-0.03324581,-0.04715995,-0.00116075,0.007
 74820,-0.00075760,-0.00192348,0.01855792,-0.00188613,0.00359371,0.0005
 2931,-0.00035073,0.00025850,0.00012505,-0.00011563,-0.00011759,-0.0020
 8144,0.00004309,0.00021138,0.00010029,0.00129722,-0.00039868,0.0005204
 1,0.00115518,0.00041437,0.00058360,-0.00082409,-0.00057882,0.01469312,
 0.05305953,0.00033492,0.00051465,0.00022000,-0.00083875,-0.00085039,-0
 .00053502,-0.00116055,-0.04856177,0.01515278,0.00071655,0.00072503,-0.
 02764558,0.00312092,-0.00417362,-0.00036616,0.00025501,0.00001007,0.00
 023585,0.00011608,0.00038187,0.00017176,0.00002121,0.00018848,-0.00051
 888,0.00023296,0.00025853,-0.00038941,-0.00003934,-0.00006233,0.000345
 57,-0.00056805,-0.00163090,0.02808630,-0.00121503,0.05116257,-0.003235
 26,-0.00009928,0.00098237,0.00061596,0.00103217,-0.01091786,0.00697304
 ,0.01354976,-0.29962283,0.00049051,0.00109054,-0.01094786,0.00177322,-
 0.00269797,0.00102007,0.00017340,0.00033994,0.00065688,0.00008440,-0.0
 0017029,-0.00089529,0.00008070,0.00001661,0.00031227,-0.00017128,-0.00
 057751,0.00056132,-0.00033012,0.00049980,0.00037246,0.00070899,0.00136
 686,-0.00807450,-0.00713877,-0.01386397,0.32626908,0.00040924,-0.00022
 095,0.00046663,-0.00015314,0.00382652,0.00245321,-0.01599792,-0.001727
 37,-0.00546204,-0.27139406,-0.01296834,-0.08052187,0.00169379,-0.00029
 727,0.00098022,0.00130652,0.00002833,-0.00016372,-0.00002425,-0.000077
 11,-0.00005607,0.00000102,0.00006078,-0.00007943,0.00045327,-0.0000648
 2,0.00013041,-0.00113396,0.00015345,-0.00071580,0.00090153,0.00038180,
 -0.00028832,0.00014599,-0.00027521,0.00059998,0.29508619,-0.00012206,0
 .00001135,-0.00031951,0.00147319,-0.00416848,-0.00277103,0.02594668,0.
 00070796,0.00935987,-0.01440339,-0.04864880,-0.00446636,0.00019808,-0.
 00085803,0.00098570,-0.00008876,0.00051651,-0.00039261,-0.00007706,0.0
 0003396,0.00008018,-0.00003478,-0.00002355,0.00006540,0.00027337,0.000
 19841,-0.00011331,0.00154191,0.00004489,0.00047700,-0.00048272,0.00086
 067,0.00071338,-0.00072582,0.00093189,0.00001560,0.01239469,0.05129033
 ,0.00041308,-0.00035937,-0.00011494,0.00120320,-0.00236434,-0.00072327
 ,0.01258670,0.00139519,0.00432830,-0.07971693,-0.00389763,-0.07552317,
 -0.03287452,-0.00205538,-0.01178476,0.00247223,0.00016097,-0.00687153,
 -0.00005609,0.00008015,0.00016361,-0.00002563,0.00010239,0.00004912,-0
 .00031990,-0.00003984,-0.00010570,0.00080131,-0.00031559,0.00045928,-0
 .00050278,0.00035073,0.00029206,-0.00004121,0.00067627,0.00037202,0.08
 729526,0.00622514,0.08436517,-0.00010609,0.00012771,-0.00006294,0.0014
 2766,0.00056929,-0.00038911,0.00629751,0.01619286,-0.00572762,-0.08728
 189,-0.08289043,0.03023544,-0.00102435,-0.00045073,0.00070886,0.000570
 31,0.00082757,-0.00042011,0.00000102,-0.00003485,-0.00002560,-0.000118
 52,-0.00011544,0.00007957,-0.00010801,-0.00024901,0.00020342,0.0001836
 3,-0.00025084,0.00015001,-0.00117162,0.00335142,0.00100254,0.00066608,
 -0.00084596,-0.00037453,-0.01232341,-0.02637942,0.01018316,0.09159927,
 0.00029726,0.00008118,-0.00000492,-0.00151247,0.00068922,0.00039126,-0
 .00992786,-0.02487549,0.00725727,-0.08201006,-0.22678109,0.06958164,-0
 .00023580,0.00019759,0.00010245,-0.00003092,-0.00003746,-0.00022483,0.
 00006082,-0.00002358,0.00010244,-0.00011546,0.00006167,-0.00016734,0.0
 0116477,0.00059704,0.00014816,0.00008800,0.00046519,-0.00028540,0.0034
 6253,-0.00308690,-0.00224251,-0.00020280,0.00084667,-0.00050233,-0.001
 48757,-0.00163301,0.00004847,0.08963871,0.25095307,-0.00015031,-0.0000
 7783,-0.00017075,-0.00037604,0.00055818,0.00002208,-0.00488105,-0.0122
 1574,0.00359690,0.02973348,0.06922719,-0.07288798,0.01439782,0.0296985
 2,-0.01416653,0.00122687,0.00076426,0.00159315,-0.00007946,0.00006541,
 0.00004913,0.00007959,-0.00016731,-0.00003200,0.00004881,0.00027623,0.
 00003546,-0.00016619,0.00004374,-0.00010577,0.00183226,-0.00241315,-0.
 00006861,-0.00061460,0.00020198,0.00054921,-0.00377577,-0.00967071,0.0
 0343733,-0.03619023,-0.07462290,0.08327139,-0.00534761,-0.00212815,-0.
 00366110,0.00030430,-0.00020658,-0.00054422,0.00080649,-0.00044486,-0.
 00023461,0.00001675,-0.00092242,0.00027665,-0.10844070,0.09888415,0.04
 216429,-0.01611359,0.02590741,0.01079308,-0.00113412,0.00154169,0.0008
 0116,0.00018342,0.00008821,-0.00016612,-0.00002533,-0.00005485,0.00009
 496,0.00008772,0.00000020,0.00009766,-0.00006142,0.00029573,0.00005178
 ,0.00022026,0.00011639,-0.00018809,0.00038852,-0.00034036,0.00027699,-
 0.00006183,0.00002744,0.00022397,0.11912096,0.00022328,0.00101853,0.00
 042237,-0.00030039,0.00012417,0.00020575,-0.00032631,0.00102587,-0.000
 34660,-0.00143439,0.00079318,0.00132386,0.10033410,-0.21167927,-0.0684
 9594,-0.00178173,0.00079650,0.00086374,0.00015342,0.00004473,-0.000315
 53,-0.00025102,0.00046497,0.00004378,0.00004001,0.00000490,-0.00002712
 ,0.00000019,-0.00007735,-0.00000018,-0.00013173,0.00047209,0.00022102,
 0.00034985,0.00004614,-0.00002761,-0.00031510,-0.00006717,-0.00056726,
 -0.00001640,0.00083938,-0.00043719,-0.10995701,0.22732400,-0.00261871,
 -0.00036534,-0.00072497,-0.00053735,0.00014012,-0.00011287,-0.00127943
 ,0.00212358,-0.00686872,0.01714683,-0.02827170,-0.01186160,0.04210979,
 -0.06741918,-0.07512424,-0.00604370,0.01113395,0.00433557,-0.00071586,
 0.00047697,0.00045930,0.00015014,-0.00028521,-0.00010574,0.00009728,0.
 00003738,0.00005072,0.00009769,-0.00000020,0.00016389,-0.00026400,0.00
 002433,0.00014282,0.00132923,-0.00161076,-0.00089368,-0.00063471,-0.00
 009590,0.00112491,0.00036938,0.00053144,0.00129216,-0.04460766,0.07507
 516,0.08399981,0.00136801,-0.00145642,0.00058910,-0.00017486,0.0002416
 7,-0.00000378,-0.00015662,-0.00056902,-0.00001782,0.00003249,0.0006329
 7,-0.00003427,-0.10416555,-0.09385825,0.03985024,-0.01766673,-0.026564
 18,0.00925422,0.00045318,0.00027336,-0.00031987,-0.00010852,0.00116431
 ,0.00004867,0.00011386,0.00004592,-0.00018578,-0.00002533,0.00004002,0
 .00009729,-0.00006396,0.00021179,0.00008159,0.00003210,0.00020437,-0.0
 0003601,0.00053835,0.00045181,0.00021707,0.00103746,0.00000852,-0.0004
 1422,0.00794956,0.01260698,-0.00577665,0.11519240,0.00048239,0.0007267
 8,-0.00010783,0.00008199,0.00014364,-0.00005783,0.00026263,0.00072218,
 -0.00048974,0.00031907,-0.00089142,0.00056238,-0.09455512,-0.21007965,
 0.06456267,-0.00042127,-0.00080964,-0.00056138,-0.00006488,0.00019836,
 -0.00003979,-0.00024904,0.00059674,0.00027626,0.00004598,-0.00016723,-
 0.00003135,-0.00005488,0.00000489,0.00003741,-0.00029621,0.00058533,0.
 00019626,0.00001320,0.00020070,0.00007556,0.00040894,0.00023175,0.0005
 9107,0.00051075,0.00139683,-0.00004575,-0.01230376,-0.02191228,0.00838
 642,0.10598467,0.22739384,0.00070466,-0.00002788,-0.00000087,-0.000007
 53,-0.00016992,-0.00017119,-0.00013671,0.00142754,0.00171285,0.0163202
 7,0.02857081,-0.01457043,0.03990234,0.06403889,-0.07285202,-0.00724411
 ,-0.01094242,0.00357966,0.00013046,-0.00011322,-0.00010576,0.00020293,
 0.00014864,0.00003521,-0.00018589,-0.00003142,-0.00003088,0.00009496,-
 0.00002714,0.00005074,0.00002233,-0.00101438,0.00015053,-0.00048382,-0
 .00021375,0.00031916,-0.00046163,-0.00009172,0.00128668,0.00019968,-0.
 00036937,-0.00675949,-0.00578534,-0.00860416,0.00342537,-0.04076520,-0
 .07231728,0.08343636,0.00751586,0.01727384,-0.00434632,0.00046437,-0.0
 0031241,-0.00073740,-0.00010733,0.00013223,-0.00013108,0.00121005,-0.0
 0040812,0.00141729,-0.01752745,-0.02778291,0.00787878,-0.09521404,-0.0
 9475357,0.02677724,0.00090216,-0.00048220,-0.00050271,-0.00117219,0.00
 346300,0.00183268,-0.00006367,-0.00029638,0.00002244,-0.00006152,-0.00
 013186,-0.00026389,-0.00009734,0.00011690,0.00008876,0.00007804,-0.000
 07307,-0.00004861,0.00021774,0.00049217,0.00016956,0.00036967,0.000563
 52,-0.00099543,0.00095158,0.00039192,0.00059405,-0.00565305,0.00023419
 ,-0.00302777,0.10901196,-0.01024887,-0.02508455,0.00626089,-0.00092813
 ,0.00078172,0.00133427,0.00013511,0.00008787,-0.00025303,0.00018415,-0
 .00005398,0.00002788,-0.00013877,0.00021822,0.00014499,-0.09479137,-0.
 22679534,0.05125163,0.00038174,0.00086102,0.00035072,0.00335133,-0.003
 08567,-0.00241356,0.00021150,0.00058509,-0.00101397,0.00029564,0.00047
 186,0.00002409,0.00011679,0.00006546,0.00016980,-0.00007159,-0.0000219
 2,-0.00009083,0.00006310,0.00018942,-0.00020267,-0.00000666,0.00012109
 ,-0.00066604,-0.00046402,0.00084405,-0.00022662,0.00034844,0.00140053,
 0.00012622,0.10214238,0.25104996,-0.00508788,-0.01090120,0.00213943,-0
 .00073284,-0.00065860,0.00102082,-0.00004103,-0.00007830,-0.00018024,-
 0.00011263,-0.00103833,0.00091246,-0.00580228,-0.01046528,0.00240504,0
 .02712907,0.05206031,-0.06507933,-0.00028854,0.00071349,0.00029243,0.0
 0100309,-0.00224225,-0.00006854,0.00008155,0.00019668,0.00015107,0.000
 05193,0.00022111,0.00014273,0.00008876,0.00016981,-0.00005225,0.000005
 84,0.00001010,-0.00002591,0.00014918,0.00016927,0.00014027,-0.00002259
 ,0.00023993,0.00003193,0.00073674,0.00016620,0.00032476,-0.00241339,-0
 .00045949,-0.00006718,-0.02943687,-0.05619149,0.06598237,-0.00075796,-
 0.00192438,0.01856057,-0.00188671,0.00359343,0.00052849,-0.00035065,0.
 00025848,0.00012492,-0.00656436,-0.00014497,-0.00061054,0.00078598,0.0
 0180511,-0.03324479,-0.04716215,-0.00116255,0.00775821,0.00014585,-0.0
 0072581,-0.00004140,0.00066657,-0.00020286,-0.00061461,0.00003201,0.00
 001298,-0.00048368,0.00022031,0.00034984,0.00132919,0.00007805,-0.0000
 7161,0.00000586,0.00017653,-0.00010246,0.00002246,-0.00011541,-0.00011
 753,-0.00208148,0.00004311,0.00021137,0.00010049,0.00115504,0.00041431
 ,0.00058370,0.00129722,-0.00039863,0.00052038,-0.00082485,-0.00058077,
 0.01469190,0.05306143,0.00071811,0.00072579,-0.02764413,0.00312150,-0.
 00417226,-0.00036647,0.00025501,0.00001013,0.00023598,0.00033474,0.000
 51443,0.00022003,-0.00083880,-0.00085037,-0.00053569,-0.00116229,-0.04
 856493,0.01518719,-0.00027527,0.00093129,0.00067621,-0.00084592,0.0008
 4696,0.00020154,0.00020430,0.00020054,-0.00021391,0.00011636,0.0000458
 4,-0.00161049,-0.00007310,-0.00002193,0.00001014,-0.00010244,0.0000343
 3,0.00004297,0.00011612,0.00038191,0.00017170,0.00002143,0.00018860,-0
 .00051889,-0.00003922,-0.00006246,0.00034554,0.00023303,0.00025865,-0.
 00038944,-0.00056963,-0.00163484,0.02808805,-0.00121393,0.05116831,0.0
 0049116,0.00109110,-0.01095138,0.00177377,-0.00269805,0.00102050,0.000
 17327,0.00034004,0.00065681,-0.00323575,-0.00009903,0.00098191,0.00061
 640,0.00103342,-0.01091944,0.00698261,0.01358342,-0.29960875,0.0005998
 8,0.00001568,0.00037169,-0.00037473,-0.00050234,0.00054978,-0.00003591
 ,0.00007565,0.00031899,-0.00018798,-0.00002762,-0.00089383,-0.00004862
 ,-0.00009086,-0.00002590,0.00002248,0.00004292,-0.00003692,0.00008449,
 -0.00017037,-0.00089536,0.00008066,0.00001653,0.00031239,-0.00033014,0
 .00049972,0.00037252,-0.00017120,-0.00057759,0.00056126,0.00070927,0.0
 0136772,-0.00806984,-0.00714966,-0.01390033,0.32625557\\0.00003812,-0.
 00028733,0.00043685,0.00035303,0.00008165,-0.00025997,-0.00021729,-0.0
 0032872,-0.00017242,-0.00002944,0.00029183,-0.00043487,-0.00035428,-0.
 00008600,0.00025721,0.00021935,0.00032705,0.00017794,0.00016288,0.0000
 6161,0.00001667,-0.00004838,0.00017361,-0.00011606,-0.00020765,-0.0000
 1557,0.00016227,0.00001227,-0.00013828,-0.00001500,0.00009149,0.000177
 37,0.00012224,-0.00000531,0.00009558,-0.00010678,-0.00016759,-0.000065
 57,-0.00001669,0.00004465,-0.00017425,0.00011565,-0.00001243,0.0001402
 5,0.00001400,0.00020727,0.00001679,-0.00016177,-0.00009179,-0.00017697
 ,-0.00012378,0.00000510,-0.00009304,0.00010449\\\@


 SILVERMAN'S PARADOX - IF MURPHY'S LAW CAN GO WRONG, IT WILL.
 Job cpu time:  0 days  1 hours 20 minutes 41.9 seconds.
 File lengths (MBytes):  RWF=     61 Int=      0 D2E=      0 Chk=     13 Scr=      1
 Normal termination of Gaussian 03 at Mon Oct 22 14:29:11 2012.
7944.66user 35.12system 2:13:04elapsed 99%CPU (0avgtext+0avgdata 0maxresident)k
0inputs+0outputs (545major+20755190minor)pagefaults 0swaps
