[Molden Format]
[Atoms] Angs
 C     1  6    -1.127606     0.584718    -0.767614
 C     2  6    -1.123929     0.591886     0.767823
 C     3  6     0.305333     0.584405     1.329363
 C     4  6     1.127537    -0.584793     0.767637
 C     5  6     1.123961    -0.591851    -0.767801
 C     6  6    -0.305275    -0.584367    -1.329396
 H     7  1    -2.155018     0.539302    -1.143453
 H     8  1    -0.705987     1.530730    -1.133604
 H     9  1    -1.659915    -0.294194     1.134047
 H    10  1    -1.673359     1.461455     1.143266
 H    11  1     0.799684     1.530151     1.069115
 H    12  1     0.281649     0.539607     2.423166
 H    13  1     2.154910    -0.539626     1.143588
 H    14  1     0.705668    -1.530741     1.133520
 H    15  1     1.673436    -1.461361    -1.143309
 H    16  1     1.659935     0.294287    -1.133907
 H    17  1    -0.799583    -1.530176    -1.069302
 H    18  1    -0.281548    -0.539418    -2.423197
[FREQ]
  229.1240
  233.3535
  371.6595
  432.2353
  436.3592
  519.5977
  794.2187
  796.2026
  800.3715
  864.5612
  868.9829
  917.8622
  920.1438
 1036.0602
 1039.4207
 1041.6490
 1079.1421
 1099.9365
 1129.9837
 1179.7301
 1287.4499
 1288.0781
 1291.7425
 1293.1950
 1350.2291
 1372.7738
 1377.3897
 1379.0533
 1383.8947
 1385.6986
 1484.8091
 1485.9754
 1489.6692
 1491.2559
 1494.7086
 1509.4268
 2990.9850
 2991.4077
 2992.1398
 2999.3769
 2999.6168
 3003.5443
 3044.2162
 3044.4315
 3045.5569
 3045.6723
 3048.6587
 3052.8815
[INT]
    0.0007
    0.0004
    0.0000
    0.0000
    0.0000
    0.6056
    0.0000
    0.0000
    0.0000
    2.0958
    2.1674
    2.0956
    2.0278
    0.0000
    0.0000
    2.6257
    0.0000
    0.0005
    0.0000
    0.0000
    1.6878
    1.6900
    0.0000
    0.0000
    0.0000
    0.0002
    0.0000
    0.0000
    0.1288
    0.1305
    0.0000
    0.0000
    6.4366
    6.3918
   15.1157
    0.0000
   25.4265
   26.1177
    0.0039
    0.0001
    0.0000
   87.5089
  129.2342
  129.9268
    0.0169
    0.0213
    0.0066
  147.4015
[FR-COORD]
 C    -2.130866     1.104957    -1.450580
 C    -2.123918     1.118502     1.450975
 C     0.576996     1.104365     2.512132
 C     2.130736    -1.105099     1.450624
 C     2.123978    -1.118436    -1.450934
 C    -0.576886    -1.104294    -2.512194
 H    -4.072394     1.019133    -2.160813
 H    -1.334122     2.892660    -2.142201
 H    -3.136785    -0.555946     2.143038
 H    -3.162190     2.761749     2.160459
 H     1.511184     2.891566     2.020334
 H     0.532239     1.019709     4.579120
 H     4.072189    -1.019745     2.161068
 H     1.333519    -2.892681     2.142042
 H     3.162336    -2.761572    -2.160541
 H     3.136822     0.556122    -2.142774
 H    -1.510993    -2.891613    -2.020688
 H    -0.532049    -1.019352    -4.579178
[FR-NORM-COORD]
vibration     1
    0.030000    -0.030000     0.130000
    0.010000     0.050000    -0.060000
   -0.050000    -0.010000    -0.080000
    0.030000    -0.030000     0.130000
    0.010000     0.050000    -0.060000
   -0.050000    -0.010000    -0.080000
   -0.030000     0.030000     0.380000
    0.240000    -0.210000     0.150000
    0.090000     0.200000    -0.070000
   -0.030000     0.010000    -0.170000
   -0.190000    -0.140000    -0.090000
   -0.010000     0.030000    -0.220000
   -0.030000     0.030000     0.380000
    0.240000    -0.210000     0.150000
   -0.020000     0.010000    -0.170000
    0.090000     0.200000    -0.070000
   -0.190000    -0.140000    -0.090000
   -0.010000     0.030000    -0.220000
vibration     2
    0.030000     0.040000    -0.010000
   -0.040000     0.010000     0.120000
    0.020000    -0.040000    -0.110000
    0.030000     0.040000    -0.010000
   -0.040000     0.010000     0.120000
    0.020000    -0.040000    -0.110000
    0.020000     0.010000    -0.030000
    0.110000     0.150000    -0.010000
   -0.300000     0.000000     0.140000
    0.040000     0.020000     0.350000
    0.030000    -0.280000    -0.130000
    0.020000     0.040000    -0.320000
    0.020000     0.010000    -0.030000
    0.110000     0.150000    -0.010000
    0.040000     0.020000     0.350000
   -0.300000     0.000000     0.140000
    0.030000    -0.280000    -0.130000
    0.020000     0.040000    -0.320000
vibration     3
    0.030000    -0.030000     0.070000
    0.050000     0.020000    -0.070000
    0.020000     0.050000     0.070000
   -0.030000     0.030000    -0.070000
   -0.050000    -0.020000     0.070000
   -0.020000    -0.050000    -0.070000
   -0.020000     0.020000     0.270000
    0.190000    -0.190000     0.090000
    0.270000     0.080000    -0.090000
   -0.020000    -0.010000    -0.270000
    0.070000     0.270000     0.090000
   -0.010000    -0.020000     0.270000
    0.020000    -0.020000    -0.270000
   -0.190000     0.190000    -0.090000
    0.020000     0.010000     0.270000
   -0.270000    -0.080000     0.090000
   -0.070000    -0.270000    -0.090000
    0.010000     0.020000    -0.270000
vibration     4
    0.160000    -0.150000    -0.050000
   -0.070000    -0.110000    -0.030000
   -0.110000    -0.090000     0.030000
   -0.160000     0.150000     0.050000
    0.070000     0.110000     0.030000
    0.110000     0.090000    -0.030000
    0.090000    -0.100000     0.190000
    0.320000    -0.300000    -0.030000
   -0.130000    -0.200000    -0.020000
   -0.080000     0.080000     0.070000
   -0.200000    -0.180000     0.020000
    0.070000    -0.090000    -0.090000
   -0.090000     0.100000    -0.190000
   -0.320000     0.300000     0.030000
    0.080000    -0.080000    -0.070000
    0.130000     0.200000     0.020000
    0.200000     0.180000    -0.020000
   -0.070000     0.090000     0.090000
vibration     5
    0.060000     0.080000     0.000000
    0.200000     0.010000     0.050000
    0.010000    -0.190000     0.050000
   -0.060000    -0.080000     0.000000
   -0.200000    -0.010000    -0.050000
   -0.010000     0.190000    -0.050000
   -0.080000    -0.070000    -0.010000
    0.110000     0.140000     0.000000
    0.390000     0.020000     0.030000
    0.100000     0.080000    -0.160000
    0.010000    -0.370000     0.030000
   -0.090000    -0.090000    -0.150000
    0.080000     0.070000     0.010000
   -0.110000    -0.140000     0.000000
   -0.100000    -0.080000     0.160000
   -0.390000    -0.020000    -0.030000
   -0.010000     0.370000    -0.030000
    0.090000     0.090000     0.150000
vibration     6
   -0.050000     0.050000     0.020000
    0.060000     0.020000     0.020000
   -0.020000    -0.060000     0.020000
   -0.050000     0.050000     0.020000
    0.060000     0.020000     0.020000
   -0.020000    -0.060000     0.020000
    0.020000    -0.020000    -0.240000
   -0.230000     0.230000     0.000000
    0.310000     0.080000     0.000000
   -0.030000    -0.010000    -0.240000
   -0.080000    -0.310000     0.000000
    0.010000     0.030000    -0.240000
    0.020000    -0.020000    -0.240000
   -0.230000     0.230000     0.000000
   -0.030000    -0.010000    -0.240000
    0.310000     0.080000     0.000000
   -0.080000    -0.310000     0.000000
    0.010000     0.030000    -0.240000
vibration     7
   -0.050000     0.040000    -0.070000
    0.020000     0.060000    -0.030000
    0.060000     0.020000     0.040000
    0.050000    -0.040000     0.070000
   -0.020000    -0.060000     0.030000
   -0.060000    -0.020000    -0.040000
   -0.150000     0.150000     0.350000
    0.270000    -0.260000    -0.040000
   -0.160000    -0.110000    -0.020000
    0.110000     0.010000     0.170000
   -0.110000    -0.170000     0.020000
    0.010000     0.120000    -0.180000
    0.150000    -0.150000    -0.350000
   -0.270000     0.260000     0.040000
   -0.110000    -0.010000    -0.170000
    0.160000     0.110000     0.020000
    0.110000     0.170000    -0.020000
   -0.010000    -0.120000     0.180000
vibration     8
   -0.040000    -0.040000     0.000000
   -0.070000     0.010000     0.060000
   -0.020000     0.060000     0.060000
    0.040000     0.040000     0.000000
    0.070000    -0.010000    -0.060000
    0.020000    -0.060000    -0.060000
    0.010000     0.020000     0.000000
    0.040000     0.050000     0.000000
    0.320000     0.050000     0.030000
   -0.190000    -0.060000    -0.310000
   -0.040000    -0.320000     0.030000
    0.060000     0.180000    -0.300000
   -0.020000    -0.020000     0.000000
   -0.040000    -0.050000     0.000000
    0.190000     0.060000     0.310000
   -0.320000    -0.050000    -0.030000
    0.040000     0.320000    -0.030000
   -0.060000    -0.180000     0.300000
vibration     9
    0.140000    -0.140000    -0.050000
    0.180000     0.050000     0.060000
    0.040000     0.180000    -0.050000
   -0.140000     0.140000     0.050000
   -0.180000    -0.050000    -0.060000
   -0.040000    -0.180000     0.050000
    0.190000    -0.190000    -0.260000
   -0.010000     0.010000    -0.060000
    0.030000     0.010000     0.070000
    0.240000     0.070000     0.210000
    0.010000     0.010000    -0.070000
    0.070000     0.250000    -0.240000
   -0.190000     0.190000     0.260000
    0.010000    -0.010000     0.060000
   -0.240000    -0.070000    -0.210000
   -0.030000    -0.010000    -0.070000
   -0.010000    -0.010000     0.070000
   -0.070000    -0.250000     0.240000
vibration    10
   -0.120000     0.100000     0.070000
   -0.030000    -0.130000    -0.030000
    0.120000     0.060000    -0.040000
   -0.120000     0.100000     0.070000
   -0.030000    -0.130000    -0.030000
    0.120000     0.060000    -0.040000
   -0.160000     0.110000     0.170000
   -0.020000     0.010000     0.070000
    0.020000    -0.100000    -0.030000
    0.030000    -0.420000    -0.070000
    0.090000    -0.010000    -0.040000
    0.390000     0.010000    -0.100000
   -0.160000     0.110000     0.170000
   -0.020000     0.010000     0.070000
    0.030000    -0.420000    -0.070000
    0.020000    -0.100000    -0.030000
    0.090000    -0.010000    -0.040000
    0.390000     0.010000    -0.100000
vibration    11
   -0.080000    -0.100000    -0.010000
    0.150000    -0.020000     0.060000
   -0.040000     0.140000    -0.050000
   -0.080000    -0.100000    -0.010000
    0.150000    -0.020000     0.060000
   -0.040000     0.140000    -0.050000
   -0.300000    -0.330000    -0.010000
   -0.080000    -0.080000    -0.010000
    0.030000    -0.050000     0.060000
    0.220000    -0.140000     0.160000
   -0.060000     0.040000    -0.060000
   -0.210000     0.220000    -0.140000
   -0.300000    -0.330000    -0.010000
   -0.080000    -0.080000    -0.010000
    0.220000    -0.140000     0.160000
    0.030000    -0.050000     0.060000
   -0.060000     0.040000    -0.060000
   -0.210000     0.220000    -0.140000
vibration    12
    0.020000    -0.020000     0.090000
    0.010000     0.000000    -0.050000
    0.000000    -0.010000    -0.040000
    0.020000    -0.020000     0.090000
    0.010000     0.000000    -0.050000
    0.000000    -0.010000    -0.040000
    0.110000    -0.100000    -0.270000
   -0.240000     0.230000     0.060000
   -0.240000     0.220000    -0.030000
    0.100000    -0.080000     0.140000
   -0.230000     0.230000    -0.030000
    0.090000    -0.100000     0.130000
    0.110000    -0.100000    -0.270000
   -0.240000     0.230000     0.060000
    0.100000    -0.080000     0.140000
   -0.240000     0.220000    -0.030000
   -0.230000     0.230000    -0.030000
    0.090000    -0.100000     0.130000
vibration    13
   -0.010000    -0.010000     0.000000
   -0.020000    -0.010000     0.080000
   -0.010000    -0.020000    -0.080000
   -0.010000    -0.010000     0.000000
   -0.020000    -0.010000     0.080000
   -0.010000    -0.020000    -0.080000
   -0.090000    -0.090000    -0.010000
    0.220000     0.230000     0.000000
    0.230000     0.230000     0.050000
   -0.110000    -0.100000    -0.230000
    0.220000     0.240000    -0.050000
   -0.090000    -0.110000     0.230000
   -0.090000    -0.090000    -0.010000
    0.220000     0.230000     0.000000
   -0.110000    -0.100000    -0.230000
    0.230000     0.230000     0.050000
    0.220000     0.240000    -0.050000
   -0.090000    -0.110000     0.230000
vibration    14
    0.040000    -0.040000    -0.030000
   -0.060000     0.100000    -0.020000
    0.110000    -0.060000     0.010000
   -0.040000     0.040000     0.030000
    0.060000    -0.100000     0.020000
   -0.110000     0.060000    -0.010000
    0.060000    -0.040000    -0.080000
   -0.010000     0.020000    -0.040000
   -0.050000     0.220000    -0.020000
   -0.140000     0.390000    -0.040000
    0.220000    -0.040000     0.020000
    0.400000    -0.140000     0.040000
   -0.060000     0.040000     0.080000
    0.010000    -0.020000     0.040000
    0.140000    -0.390000     0.040000
    0.050000    -0.220000     0.020000
   -0.220000     0.040000    -0.020000
   -0.400000     0.140000    -0.040000
vibration    15
    0.090000     0.100000     0.000000
   -0.030000    -0.080000    -0.030000
    0.080000     0.030000    -0.030000
   -0.090000    -0.100000     0.000000
    0.030000     0.080000     0.030000
   -0.080000    -0.030000     0.030000
    0.340000     0.340000     0.000000
    0.190000     0.190000     0.000000
    0.050000    -0.110000    -0.030000
    0.010000    -0.260000    -0.060000
    0.100000    -0.050000    -0.030000
    0.240000     0.000000    -0.060000
   -0.340000    -0.340000     0.000000
   -0.190000    -0.190000     0.000000
   -0.010000     0.260000     0.060000
   -0.050000     0.110000     0.030000
   -0.100000     0.050000     0.030000
   -0.240000     0.000000     0.060000
vibration    16
   -0.110000     0.110000    -0.020000
    0.150000     0.040000    -0.020000
   -0.040000    -0.150000    -0.020000
   -0.110000     0.110000    -0.020000
    0.150000     0.040000    -0.020000
   -0.040000    -0.150000    -0.020000
   -0.180000     0.170000     0.240000
    0.110000    -0.110000     0.000000
   -0.150000    -0.040000     0.000000
    0.240000     0.070000     0.240000
    0.040000     0.150000     0.000000
   -0.060000    -0.240000     0.240000
   -0.180000     0.170000     0.240000
    0.110000    -0.110000     0.000000
    0.240000     0.070000     0.240000
   -0.150000    -0.040000     0.000000
    0.040000     0.150000     0.000000
   -0.060000    -0.240000     0.240000
vibration    17
   -0.010000    -0.010000     0.000000
    0.000000     0.000000     0.000000
    0.000000     0.000000     0.000000
    0.010000     0.010000     0.000000
    0.000000     0.000000     0.000000
    0.000000     0.000000     0.000000
   -0.130000    -0.140000     0.000000
    0.250000     0.260000     0.000000
   -0.100000     0.350000     0.000000
    0.050000    -0.170000     0.000000
   -0.360000     0.090000     0.000000
    0.170000    -0.050000     0.000000
    0.130000     0.140000     0.000000
   -0.250000    -0.260000     0.000000
   -0.050000     0.170000     0.000000
    0.100000    -0.350000     0.000000
    0.360000    -0.090000     0.000000
   -0.170000     0.050000     0.000000
vibration    18
   -0.120000    -0.120000     0.000000
   -0.040000     0.160000     0.000000
    0.160000    -0.040000     0.000000
   -0.120000    -0.120000     0.000000
   -0.040000     0.160000     0.000000
    0.160000    -0.040000     0.000000
   -0.080000    -0.080000     0.000000
   -0.250000    -0.250000     0.000000
   -0.090000     0.340000     0.000000
   -0.030000     0.100000     0.000000
    0.340000    -0.090000     0.000000
    0.100000    -0.030000     0.000000
   -0.080000    -0.080000     0.000000
   -0.250000    -0.250000     0.000000
   -0.030000     0.100000     0.000000
   -0.090000     0.340000     0.000000
    0.340000    -0.090000     0.000000
    0.100000    -0.030000     0.000000
vibration    19
    0.010000     0.020000     0.000000
    0.010000    -0.020000     0.000000
   -0.020000     0.010000     0.000000
    0.010000     0.020000     0.000000
    0.010000    -0.020000     0.000000
   -0.020000     0.010000     0.000000
   -0.290000    -0.290000     0.000000
    0.000000     0.000000     0.000000
    0.000000     0.000000     0.000000
   -0.110000     0.390000     0.000000
    0.000000     0.000000     0.000000
    0.390000    -0.100000     0.000000
   -0.290000    -0.290000     0.000000
    0.000000     0.000000     0.000000
   -0.110000     0.390000     0.000000
    0.000000     0.000000     0.000000
    0.000000     0.000000     0.000000
    0.390000    -0.100000     0.000000
vibration    20
    0.010000    -0.010000     0.140000
    0.010000     0.000000    -0.140000
    0.000000     0.010000     0.140000
   -0.010000     0.010000    -0.140000
   -0.010000     0.000000     0.140000
    0.000000    -0.010000    -0.140000
    0.090000    -0.090000    -0.180000
   -0.210000     0.210000     0.110000
   -0.290000    -0.080000    -0.110000
    0.120000     0.030000     0.180000
   -0.080000    -0.290000     0.110000
    0.030000     0.120000    -0.180000
   -0.090000     0.090000     0.180000
    0.210000    -0.210000    -0.110000
   -0.120000    -0.030000    -0.180000
    0.290000     0.080000     0.110000
    0.080000     0.290000    -0.110000
   -0.030000    -0.120000     0.180000
vibration    21
    0.000000     0.000000    -0.090000
    0.000000    -0.010000     0.020000
    0.000000     0.000000     0.070000
    0.000000     0.000000    -0.090000
    0.000000    -0.010000     0.020000
    0.010000     0.000000     0.070000
   -0.090000    -0.020000     0.060000
    0.230000     0.010000    -0.070000
   -0.100000     0.460000     0.010000
    0.050000    -0.220000    -0.010000
   -0.330000    -0.040000     0.060000
    0.160000     0.000000    -0.050000
   -0.090000    -0.020000     0.060000
    0.230000     0.010000    -0.070000
    0.050000    -0.220000    -0.010000
   -0.100000     0.460000     0.010000
   -0.330000    -0.040000     0.060000
    0.150000     0.000000    -0.050000
vibration    22
   -0.010000    -0.010000     0.030000
    0.000000     0.000000    -0.090000
   -0.010000     0.000000     0.060000
   -0.010000    -0.010000     0.030000
    0.000000     0.000000    -0.090000
   -0.010000     0.000000     0.060000
   -0.140000    -0.170000    -0.020000
    0.280000     0.360000     0.030000
   -0.180000     0.040000    -0.080000
    0.060000    -0.020000     0.070000
    0.330000    -0.200000     0.050000
   -0.160000     0.080000    -0.040000
   -0.140000    -0.170000    -0.020000
    0.280000     0.360000     0.030000
    0.060000    -0.020000     0.070000
   -0.180000     0.030000    -0.080000
    0.330000    -0.200000     0.050000
   -0.160000     0.080000    -0.040000
vibration    23
    0.030000    -0.040000    -0.030000
   -0.040000     0.040000    -0.010000
    0.040000    -0.040000     0.020000
   -0.030000     0.040000     0.030000
    0.040000    -0.040000     0.010000
   -0.040000     0.040000    -0.020000
    0.070000    -0.020000    -0.060000
    0.010000    -0.050000    -0.040000
   -0.090000     0.260000    -0.020000
    0.090000    -0.420000    -0.030000
    0.230000    -0.090000     0.020000
   -0.380000     0.060000     0.030000
   -0.070000     0.020000     0.060000
   -0.010000     0.050000     0.040000
   -0.090000     0.420000     0.030000
    0.090000    -0.260000     0.020000
   -0.230000     0.090000    -0.020000
    0.380000    -0.060000    -0.030000
vibration    24
    0.040000     0.040000     0.000000
   -0.040000    -0.040000    -0.030000
    0.040000     0.030000    -0.030000
   -0.040000    -0.040000     0.000000
    0.040000     0.040000     0.030000
   -0.040000    -0.030000     0.030000
   -0.320000    -0.330000    -0.010000
    0.220000     0.220000     0.000000
    0.000000    -0.140000    -0.040000
   -0.110000     0.180000    -0.050000
    0.180000    -0.010000    -0.030000
   -0.250000     0.120000    -0.050000
    0.320000     0.330000     0.010000
   -0.220000    -0.220000     0.000000
    0.110000    -0.180000     0.050000
    0.000000     0.140000     0.040000
   -0.180000     0.010000     0.030000
    0.250000    -0.120000     0.050000
vibration    25
    0.050000     0.050000     0.000000
   -0.020000     0.070000     0.000000
   -0.070000     0.020000     0.000000
   -0.050000    -0.050000     0.000000
    0.020000    -0.070000     0.000000
    0.070000    -0.020000     0.000000
   -0.260000    -0.260000     0.000000
   -0.110000    -0.110000     0.000000
    0.040000    -0.170000     0.000000
    0.100000    -0.350000     0.000000
    0.170000    -0.040000     0.000000
    0.350000    -0.090000     0.000000
    0.260000     0.260000     0.000000
    0.110000     0.110000     0.000000
   -0.100000     0.350000     0.000000
   -0.040000     0.170000     0.000000
   -0.170000     0.040000     0.000000
   -0.350000     0.090000     0.000000
vibration    26
    0.040000     0.050000     0.000000
    0.020000    -0.070000     0.000000
   -0.070000     0.020000     0.000000
    0.040000     0.050000     0.000000
    0.020000    -0.070000     0.000000
   -0.070000     0.020000     0.000000
    0.040000     0.050000     0.000000
   -0.270000    -0.280000     0.000000
   -0.110000     0.390000     0.000000
    0.010000    -0.030000     0.000000
    0.390000    -0.100000     0.000000
   -0.030000     0.010000     0.000000
    0.040000     0.050000     0.000000
   -0.270000    -0.280000     0.000000
    0.010000    -0.030000     0.000000
   -0.110000     0.390000     0.000000
    0.390000    -0.100000     0.000000
   -0.030000     0.010000     0.000000
vibration    27
   -0.040000     0.030000    -0.020000
    0.050000    -0.080000    -0.010000
   -0.090000     0.050000     0.010000
    0.040000    -0.030000     0.020000
   -0.050000     0.080000     0.010000
    0.090000    -0.050000    -0.010000
   -0.040000     0.040000     0.000000
    0.100000    -0.080000    -0.010000
   -0.180000     0.420000    -0.010000
   -0.010000     0.130000     0.000000
    0.430000    -0.180000     0.010000
    0.130000    -0.010000     0.000000
    0.040000    -0.040000     0.000000
   -0.100000     0.080000     0.010000
    0.010000    -0.130000     0.000000
    0.180000    -0.420000     0.010000
   -0.430000     0.180000    -0.010000
   -0.130000     0.010000     0.000000
vibration    28
   -0.080000    -0.080000     0.000000
    0.030000     0.060000    -0.020000
   -0.060000    -0.030000    -0.020000
    0.080000     0.080000     0.000000
   -0.030000    -0.060000     0.020000
    0.060000     0.030000     0.020000
    0.110000     0.110000     0.000000
    0.370000     0.380000     0.000000
   -0.040000    -0.290000    -0.010000
    0.060000    -0.060000     0.000000
    0.270000     0.050000    -0.010000
    0.050000    -0.060000     0.000000
   -0.120000    -0.110000     0.000000
   -0.370000    -0.380000     0.000000
   -0.060000     0.060000     0.000000
    0.040000     0.290000     0.010000
   -0.270000    -0.050000     0.010000
   -0.050000     0.060000     0.000000
vibration    29
   -0.030000     0.020000     0.000000
    0.010000    -0.100000     0.000000
    0.090000     0.000000     0.000000
   -0.030000     0.020000     0.000000
    0.010000    -0.100000     0.000000
    0.090000     0.000000     0.000000
   -0.030000     0.060000     0.070000
   -0.010000     0.030000     0.010000
   -0.060000     0.190000    -0.010000
   -0.150000     0.430000    -0.030000
   -0.190000     0.060000    -0.010000
   -0.400000     0.140000    -0.030000
   -0.030000     0.060000     0.070000
   -0.010000     0.030000     0.010000
   -0.150000     0.430000    -0.030000
   -0.060000     0.190000    -0.010000
   -0.190000     0.060000    -0.010000
   -0.400000     0.140000    -0.030000
vibration    30
    0.080000     0.080000     0.000000
   -0.040000     0.030000     0.000000
    0.040000    -0.040000     0.000000
    0.080000     0.080000     0.000000
   -0.040000     0.030000     0.000000
    0.040000    -0.040000     0.000000
   -0.360000    -0.360000     0.000000
   -0.170000    -0.170000     0.000000
    0.000000    -0.090000    -0.010000
    0.000000    -0.240000    -0.060000
   -0.110000     0.000000     0.010000
   -0.280000     0.020000     0.060000
   -0.360000    -0.360000     0.000000
   -0.170000    -0.170000     0.000000
    0.000000    -0.240000    -0.060000
    0.000000    -0.090000    -0.010000
   -0.110000     0.000000     0.010000
   -0.280000     0.020000     0.060000
vibration    31
    0.020000    -0.020000    -0.030000
   -0.010000    -0.020000    -0.010000
   -0.020000    -0.010000     0.020000
   -0.020000     0.020000     0.030000
    0.010000     0.020000     0.010000
    0.020000     0.010000    -0.020000
   -0.090000     0.090000     0.380000
   -0.280000     0.270000    -0.050000
    0.170000     0.110000    -0.020000
    0.060000     0.020000     0.190000
    0.110000     0.190000     0.020000
    0.020000     0.070000    -0.200000
    0.090000    -0.090000    -0.380000
    0.280000    -0.280000     0.050000
   -0.060000    -0.020000    -0.190000
   -0.170000    -0.110000     0.020000
   -0.110000    -0.190000    -0.020000
   -0.020000    -0.070000     0.200000
vibration    32
   -0.010000    -0.010000     0.000000
   -0.030000     0.000000    -0.030000
    0.000000     0.030000    -0.030000
    0.010000     0.010000     0.000000
    0.030000     0.000000     0.030000
    0.000000    -0.030000     0.030000
    0.000000     0.000000     0.010000
    0.040000     0.050000     0.000000
    0.340000     0.060000    -0.040000
    0.110000     0.030000     0.340000
   -0.050000    -0.340000    -0.040000
   -0.030000    -0.110000     0.330000
    0.000000     0.000000    -0.010000
   -0.040000    -0.050000     0.000000
   -0.110000    -0.030000    -0.340000
   -0.340000    -0.060000     0.040000
    0.050000     0.340000     0.040000
    0.030000     0.110000    -0.330000
vibration    33
    0.030000    -0.030000    -0.020000
    0.020000     0.010000     0.010000
   -0.010000    -0.020000     0.010000
    0.030000    -0.030000    -0.020000
    0.020000     0.010000     0.010000
   -0.010000    -0.020000     0.010000
   -0.080000     0.080000     0.360000
   -0.270000     0.270000    -0.040000
   -0.210000    -0.060000     0.020000
   -0.060000    -0.040000    -0.210000
    0.060000     0.220000     0.020000
    0.040000     0.060000    -0.220000
   -0.080000     0.080000     0.360000
   -0.270000     0.270000    -0.040000
   -0.060000    -0.040000    -0.210000
   -0.210000    -0.060000     0.020000
    0.060000     0.220000     0.020000
    0.040000     0.060000    -0.220000
vibration    34
    0.000000     0.000000     0.000000
   -0.040000    -0.010000    -0.020000
   -0.010000    -0.040000     0.020000
    0.000000     0.000000     0.000000
   -0.040000    -0.010000    -0.020000
   -0.010000    -0.040000     0.020000
   -0.020000    -0.020000    -0.010000
    0.000000    -0.010000     0.000000
    0.340000     0.090000    -0.040000
    0.100000     0.010000     0.330000
    0.090000     0.340000     0.040000
    0.010000     0.100000    -0.330000
   -0.020000    -0.020000    -0.010000
    0.000000    -0.010000     0.000000
    0.100000     0.010000     0.330000
    0.340000     0.090000    -0.040000
    0.090000     0.340000     0.040000
    0.010000     0.100000    -0.330000
vibration    35
   -0.020000     0.020000     0.020000
    0.020000     0.010000     0.020000
   -0.010000    -0.020000     0.020000
   -0.020000     0.020000     0.020000
    0.020000     0.010000     0.020000
   -0.010000    -0.020000     0.020000
    0.070000    -0.070000    -0.300000
    0.230000    -0.220000     0.040000
   -0.260000    -0.070000     0.030000
   -0.090000    -0.020000    -0.260000
    0.070000     0.260000     0.030000
    0.020000     0.090000    -0.250000
    0.070000    -0.070000    -0.300000
    0.230000    -0.220000     0.040000
   -0.090000    -0.020000    -0.260000
   -0.260000    -0.070000     0.030000
    0.070000     0.260000     0.030000
    0.020000     0.090000    -0.250000
vibration    36
   -0.020000     0.020000     0.020000
   -0.030000    -0.010000    -0.020000
   -0.010000    -0.030000     0.020000
    0.020000    -0.020000    -0.020000
    0.030000     0.010000     0.020000
    0.010000     0.030000    -0.020000
    0.060000    -0.060000    -0.280000
    0.210000    -0.210000     0.030000
    0.280000     0.080000    -0.030000
    0.080000     0.020000     0.270000
    0.070000     0.280000     0.030000
    0.020000     0.080000    -0.270000
   -0.060000     0.060000     0.280000
   -0.210000     0.210000    -0.030000
   -0.080000    -0.020000    -0.270000
   -0.280000    -0.080000     0.030000
   -0.070000    -0.280000    -0.030000
   -0.020000    -0.080000     0.270000
vibration    37
    0.010000    -0.010000    -0.040000
    0.000000     0.000000     0.020000
    0.000000    -0.010000     0.030000
    0.010000    -0.010000    -0.040000
    0.000000     0.000000     0.020000
    0.000000    -0.010000     0.020000
   -0.070000     0.070000    -0.050000
   -0.020000     0.020000     0.550000
   -0.010000     0.000000    -0.220000
   -0.040000    -0.020000     0.020000
    0.010000     0.020000    -0.340000
    0.020000     0.060000     0.030000
   -0.070000     0.070000    -0.050000
   -0.020000     0.020000     0.570000
   -0.040000    -0.020000     0.020000
   -0.010000     0.000000    -0.230000
    0.010000     0.020000    -0.330000
    0.020000     0.060000     0.030000
vibration    38
    0.000000     0.000000     0.000000
   -0.010000     0.000000    -0.040000
    0.000000    -0.010000     0.030000
    0.000000     0.000000     0.010000
   -0.010000     0.000000    -0.040000
    0.000000    -0.010000     0.030000
    0.010000    -0.010000     0.010000
    0.000000     0.000000    -0.070000
    0.030000     0.010000     0.510000
    0.090000     0.020000    -0.050000
    0.010000     0.020000    -0.450000
    0.020000     0.080000     0.040000
    0.010000    -0.010000     0.010000
    0.000000     0.000000    -0.070000
    0.090000     0.020000    -0.050000