[Molden Format]
[Atoms] Angs
 C     1  6     0.000000     0.000000    -0.527458
 O     2  8     0.000000     0.000000     0.674312
 H     3  1     0.939977     0.000000    -1.114874
 H     4  1    -0.939977     0.000000    -1.114874
[FREQ]
 1198.7162
 1259.7228
 1530.6279
 1814.4851
 2882.8837
 2940.3611
[INT]
    5.0180
    9.3945
    9.1309
  122.9457
   70.5036
  132.7430
[FR-COORD]
 C     0.000000     0.000000    -0.996751
 O     0.000000     0.000000     1.274265
 H     1.776299     0.000000    -2.106806
 H    -1.776299     0.000000    -2.106806
[FR-NORM-COORD]
vibration     1
    0.170000     0.000000     0.000000
   -0.040000     0.000000     0.000000
   -0.700000     0.000000     0.000000
   -0.700000     0.000000     0.000000
vibration     2
    0.000000     0.150000     0.000000
    0.000000    -0.080000     0.000000
    0.000000    -0.250000    -0.650000
    0.000000    -0.250000     0.650000
vibration     3
    0.000000     0.000000     0.000000
    0.000000     0.000000     0.080000
    0.000000    -0.350000    -0.610000
    0.000000     0.350000    -0.610000
vibration     4
    0.000000     0.000000     0.590000
    0.000000     0.000000    -0.420000
    0.000000    -0.440000    -0.210000
    0.000000     0.440000    -0.210000
vibration     5
    0.000000     0.000000     0.060000
    0.000000     0.000000     0.000000
    0.000000     0.610000    -0.350000
    0.000000    -0.610000    -0.350000
vibration     6
    0.000000     0.100000     0.000000
    0.000000     0.000000     0.000000
    0.000000    -0.600000     0.370000
    0.000000    -0.600000    -0.370000
