 Entering Gaussian System, Link 0=/usr/local/g03/g03
 Initial command:
 /usr/local/g03/l1.exe /home/chaquin/ENSEIGNEMENT/Gau-4738.inp -scrdir=/home/chaquin/ENSEIGNEMENT/
 Entering Link 1 = /usr/local/g03/l1.exe PID=      4743.
  
 Copyright (c) 1988,1990,1992,1993,1995,1998,2003,2004, Gaussian, Inc.
                  All Rights Reserved.
  
 This is the Gaussian(R) 03 program.  It is based on the
 the Gaussian(R) 98 system (copyright 1998, Gaussian, Inc.),
 the Gaussian(R) 94 system (copyright 1995, Gaussian, Inc.),
 the Gaussian 92(TM) system (copyright 1992, Gaussian, Inc.),
 the Gaussian 90(TM) system (copyright 1990, Gaussian, Inc.),
 the Gaussian 88(TM) system (copyright 1988, Gaussian, Inc.),
 the Gaussian 86(TM) system (copyright 1986, Carnegie Mellon
 University), and the Gaussian 82(TM) system (copyright 1983,
 Carnegie Mellon University). Gaussian is a federally registered
 trademark of Gaussian, Inc.
  
 This software contains proprietary and confidential information,
 including trade secrets, belonging to Gaussian, Inc.
  
 This software is provided under written license and may be
 used, copied, transmitted, or stored only in accord with that
 written license.
  
 The following legend is applicable only to US Government
 contracts under FAR:
  
                    RESTRICTED RIGHTS LEGEND
  
 Use, reproduction and disclosure by the US Government is
 subject to restrictions as set forth in subparagraphs (a)
 and (c) of the Commercial Computer Software - Restricted
 Rights clause in FAR 52.227-19.
  
 Gaussian, Inc.
 340 Quinnipiac St., Bldg. 40, Wallingford CT 06492
  
  
 ---------------------------------------------------------------
 Warning -- This program may not be used in any manner that
 competes with the business of Gaussian, Inc. or will provide
 assistance to any competitor of Gaussian, Inc.  The licensee
 of this program is prohibited from giving any competitor of
 Gaussian, Inc. access to this program.  By using this program,
 the user acknowledges that Gaussian, Inc. is engaged in the
 business of creating and licensing software in the field of
 computational chemistry and represents and warrants to the
 licensee that it is not a competitor of Gaussian, Inc. and that
 it will not use this program in any manner prohibited above.
 ---------------------------------------------------------------
  

 Cite this work as:
 Gaussian 03, Revision C.02,
 M. J. Frisch, G. W. Trucks, H. B. Schlegel, G. E. Scuseria, 
 M. A. Robb, J. R. Cheeseman, J. A. Montgomery, Jr., T. Vreven, 
 K. N. Kudin, J. C. Burant, J. M. Millam, S. S. Iyengar, J. Tomasi, 
 V. Barone, B. Mennucci, M. Cossi, G. Scalmani, N. Rega, 
 G. A. Petersson, H. Nakatsuji, M. Hada, M. Ehara, K. Toyota, 
 R. Fukuda, J. Hasegawa, M. Ishida, T. Nakajima, Y. Honda, O. Kitao, 
 H. Nakai, M. Klene, X. Li, J. E. Knox, H. P. Hratchian, J. B. Cross, 
 C. Adamo, J. Jaramillo, R. Gomperts, R. E. Stratmann, O. Yazyev, 
 A. J. Austin, R. Cammi, C. Pomelli, J. W. Ochterski, P. Y. Ayala, 
 K. Morokuma, G. A. Voth, P. Salvador, J. J. Dannenberg, 
 V. G. Zakrzewski, S. Dapprich, A. D. Daniels, M. C. Strain, 
 O. Farkas, D. K. Malick, A. D. Rabuck, K. Raghavachari, 
 J. B. Foresman, J. V. Ortiz, Q. Cui, A. G. Baboul, S. Clifford, 
 J. Cioslowski, B. B. Stefanov, G. Liu, A. Liashenko, P. Piskorz, 
 I. Komaromi, R. L. Martin, D. J. Fox, T. Keith, M. A. Al-Laham, 
 C. Y. Peng, A. Nanayakkara, M. Challacombe, P. M. W. Gill, 
 B. Johnson, W. Chen, M. W. Wong, C. Gonzalez, and J. A. Pople, 
 Gaussian, Inc., Wallingford CT, 2004.
 
 ******************************************
 Gaussian 03:  AM64L-G03RevC.02 12-Jun-2004
                18-Mar-2012 
 ******************************************
 %chk=geom
 ----------------------------------------------------
 # B3LYP 6-311+G** geom=checkpoint freq pop=none test
 ----------------------------------------------------
 1/10=4,29=2,30=1,38=1/1,3;
 2/40=1/2;
 3/5=4,6=6,7=111,11=2,16=1,25=1,30=1,74=-5/1,2,3;
 4//1;
 5/5=2,38=5/2;
 8/6=4,10=90,11=11/1;
 11/6=1,8=1,9=11,15=111,16=1/1,2,10;
 10/6=1/2;
 7/8=1,10=1,25=1/1,2,3,16;
 1/10=4,30=1/3;
 99//99;
 ----------------------------
 *** Vibrations H2CO **** 0 1
 ----------------------------
 Z-Matrix taken from the checkpoint file:
 geom.chk
 Charge =  0 Multiplicity = 1
 C
 O,1,co
 H,1,r,2,a
 H,1,r,2,a,3,d,0
      Variables:
 r=1.10842849
 a=122.00235067
 co=1.20176925
      Constants:
 d=180.
 Recover connectivity data from disk.

 GradGradGradGradGradGradGradGradGradGradGradGradGradGradGradGradGradGrad
 Berny optimization.
 Initialization pass.
                       ----------------------------
                       !    Initial Parameters    !
                       ! (Angstroms and Degrees)  !
 ----------------------                            ----------------------
 !      Name          Value   Derivative information (Atomic Units)     !
 ------------------------------------------------------------------------
 !        r          1.1084   calculate D2E/DX2 analytically            !
 !        a        122.0024   calculate D2E/DX2 analytically            !
 !       co          1.2018   calculate D2E/DX2 analytically            !
 !        d        180.0      frozen, calculate D2E/DX2 analytically    !
 ------------------------------------------------------------------------
 Trust Radius=3.00D-01 FncErr=1.00D-07 GrdErr=1.00D-07
 Number of steps in this run=   2 maximum allowed number of steps=   2.
 GradGradGradGradGradGradGradGradGradGradGradGradGradGradGradGradGradGrad

                          Input orientation:                          
 ---------------------------------------------------------------------
 Center     Atomic     Atomic              Coordinates (Angstroms)
 Number     Number      Type              X           Y           Z
 ---------------------------------------------------------------------
    1          6             0        0.000000    0.000000   -0.527458
    2          8             0        0.000000    0.000000    0.674312
    3          1             0        0.939977    0.000000   -1.114874
    4          1             0       -0.939977    0.000000   -1.114874
 ---------------------------------------------------------------------
                    Distance matrix (angstroms):
                    1          2          3          4
     1  C    0.000000
     2  O    1.201769   0.000000
     3  H    1.108428   2.021074   0.000000
     4  H    1.108428   2.021074   1.879953   0.000000
 Stoichiometry    CH2O
 Framework group  C2V[C2(CO),SGV(H2)]
 Deg. of freedom     3
 Full point group                 C2V     NOp   4
 Largest Abelian subgroup         C2V     NOp   4
 Largest concise Abelian subgroup C2      NOp   2
                         Standard orientation:                         
 ---------------------------------------------------------------------
 Center     Atomic     Atomic              Coordinates (Angstroms)
 Number     Number      Type              X           Y           Z
 ---------------------------------------------------------------------
    1          6             0        0.000000    0.000000   -0.527458
    2          8             0        0.000000    0.000000    0.674312
    3          1             0        0.000000    0.939977   -1.114874
    4          1             0        0.000000   -0.939977   -1.114874
 ---------------------------------------------------------------------
 Rotational constants (GHZ):    283.7709935     39.0129803     34.2977132
 Standard basis: 6-311+G(d,p) (5D, 7F)
 There are    27 symmetry adapted basis functions of A1  symmetry.
 There are     3 symmetry adapted basis functions of A2  symmetry.
 There are    11 symmetry adapted basis functions of B1  symmetry.
 There are    15 symmetry adapted basis functions of B2  symmetry.
 Integral buffers will be    131072 words long.
 Raffenetti 2 integral format.
 Two-electron integral symmetry is turned on.
    56 basis functions,    88 primitive gaussians,    58 cartesian basis functions
     8 alpha electrons        8 beta electrons
       nuclear repulsion energy        31.3356311020 Hartrees.
 NAtoms=    4 NActive=    4 NUniq=    3 SFac= 2.05D+00 NAtFMM=   60 Big=F
 One-electron integrals computed using PRISM.
 NBasis=    56 RedAO= T  NBF=    27     3    11    15
 NBsUse=    56 1.00D-06 NBFU=    27     3    11    15
 Harris functional with IExCor=  402 diagonalized for initial guess.
 ExpMin= 4.38D-02 ExpMax= 8.59D+03 ExpMxC= 1.30D+03 IAcc=2 IRadAn=         4 AccDes= 0.00D+00
 HarFok:  IExCor= 402 AccDes= 0.00D+00 IRadAn=         4 IDoV=1
 ScaDFX=  1.000000  1.000000  1.000000  1.000000
 Initial guess orbital symmetries:
       Occupied  (A1) (A1) (A1) (A1) (B2) (A1) (B1) (B2)
       Virtual   (B1) (A1) (A1) (B2) (B1) (A1) (B2) (A1) (B1) (B2)
                 (A1) (A1) (A1) (B2) (B1) (A1) (B2) (A1) (A1) (A2)
                 (B1) (B2) (B1) (A1) (B2) (A1) (B2) (A1) (B1) (A2)
                 (A1) (B2) (A1) (B2) (B1) (A1) (A2) (A1) (B1) (A1)
                 (B2) (B2) (A1) (B1) (B2) (A1) (A1) (A1)
 The electronic state of the initial guess is 1-A1.
 Requested convergence on RMS density matrix=1.00D-08 within 128 cycles.
 Requested convergence on MAX density matrix=1.00D-06.
 Requested convergence on             energy=1.00D-06.
 No special actions if energy rises.
 Keep R1 integrals in memory in canonical form, NReq=     2450911.
 SCF Done:  E(RB+HF-LYP) =  -114.541755779     A.U. after    9 cycles
             Convg  =    0.3809D-08             -V/T =  2.0036
             S**2   =   0.0000
 Range of M.O.s used for correlation:     1    56
 NBasis=    56 NAE=     8 NBE=     8 NFC=     0 NFV=     0
 NROrb=     56 NOA=     8 NOB=     8 NVA=    48 NVB=    48
 Symmetrizing basis deriv contribution to polar:
 IMax=3 JMax=2 DiffMx= 0.00D+00
 G2DrvN: will do    5 centers at a time, making    1 passes doing MaxLOS=2.
 FoFDir/FoFCou used for L=0 through L=2.
 DoAtom=TTTT
          Differentiating once with respect to electric field.
                with respect to dipole field.
          Differentiating once with respect to nuclear coordinates.
          Store integrals in memory, NReq=     2285360.
          There are  12 degrees of freedom in the 1st order CPHF.
    12 vectors were produced by pass  0.
 AX will form  12 AO Fock derivatives at one time.
    12 vectors were produced by pass  1.
    12 vectors were produced by pass  2.
    12 vectors were produced by pass  3.
    12 vectors were produced by pass  4.
     9 vectors were produced by pass  5.
     1 vectors were produced by pass  6.
 Inv2:  IOpt= 1 Iter= 1 AM= 1.16D-15 Conv= 1.00D-12.
 Inverted reduced A of dimension   70 with in-core refinement.
 Isotropic polarizability for W=    0.000000       15.46 Bohr**3.
 End of Minotr Frequency-dependent properties file   721 does not exist.
 Full mass-weighted force constant matrix:
 Low frequencies ---   -0.0011   -0.0008    0.0001    3.2087   20.6575   42.4373
 Low frequencies --- 1198.7162 1259.7229 1530.6279
 Diagonal vibrational polarizability:
        0.0939789       0.5724989       1.3381150
 Harmonic frequencies (cm**-1), IR intensities (KM/Mole), Raman scattering
 activities (A**4/AMU), depolarization ratios for plane and unpolarized
 incident light, reduced masses (AMU), force constants (mDyne/A),
 and normal coordinates:
                     1                      2                      3
                    B1                     B2                     A1
 Frequencies --  1198.7162              1259.7228              1530.6279
 Red. masses --     1.3680                 1.3442                 1.1045
 Frc consts  --     1.1582                 1.2568                 1.5246
 IR Inten    --     5.0180                 9.3945                 9.1309
 Atom AN      X      Y      Z        X      Y      Z        X      Y      Z
   1   6     0.17   0.00   0.00     0.00   0.15   0.00     0.00   0.00   0.00
   2   8    -0.04   0.00   0.00     0.00  -0.08   0.00     0.00   0.00   0.08
   3   1    -0.70   0.00   0.00     0.00  -0.25  -0.65     0.00  -0.35  -0.61
   4   1    -0.70   0.00   0.00     0.00  -0.25   0.65     0.00   0.35  -0.61
                     4                      5                      6
                    A1                     A1                     B2
 Frequencies --  1814.4851              2882.8837              2940.3611
 Red. masses --     7.5139                 1.0432                 1.1205
 Frc consts  --    14.5755                 5.1084                 5.7077
 IR Inten    --   122.9457                70.5036               132.7430
 Atom AN      X      Y      Z        X      Y      Z        X      Y      Z
   1   6     0.00   0.00   0.59     0.00   0.00   0.06     0.00   0.10   0.00
   2   8     0.00   0.00  -0.42     0.00   0.00   0.00     0.00   0.00   0.00
   3   1     0.00  -0.44  -0.21     0.00   0.61  -0.35     0.00  -0.60   0.37
   4   1     0.00   0.44  -0.21     0.00  -0.61  -0.35     0.00  -0.60  -0.37

 -------------------
 - Thermochemistry -
 -------------------
 Temperature   298.150 Kelvin.  Pressure   1.00000 Atm.
 Atom  1 has atomic number  6 and mass  12.00000
 Atom  2 has atomic number  8 and mass  15.99491
 Atom  3 has atomic number  1 and mass   1.00783
 Atom  4 has atomic number  1 and mass   1.00783
 Molecular mass:    30.01056 amu.
 Principal axes and moments of inertia in atomic units:
                           1         2         3
     EIGENVALUES --     6.35985  46.26002  52.61987
           X            0.00000   0.00000   1.00000
           Y            0.00000   1.00000   0.00000
           Z            1.00000   0.00000   0.00000
 This molecule is an asymmetric top.
 Rotational symmetry number  2.
 Rotational temperatures (Kelvin)     13.61884     1.87233     1.64603
 Rotational constants (GHZ):         283.77099    39.01298    34.29771
 Zero-point vibrational energy      69543.7 (Joules/Mol)
                                   16.62134 (Kcal/Mol)
 Vibrational temperatures:   1724.68  1812.46  2202.23  2610.64  4147.82
          (Kelvin)           4230.52
 
 Zero-point correction=                           0.026488 (Hartree/Particle)
 Thermal correction to Energy=                    0.029356
 Thermal correction to Enthalpy=                  0.030300
 Thermal correction to Gibbs Free Energy=         0.005485
 Sum of electronic and zero-point Energies=           -114.515268
 Sum of electronic and thermal Energies=              -114.512400
 Sum of electronic and thermal Enthalpies=            -114.511456
 Sum of electronic and thermal Free Energies=         -114.536271
 
                     E (Thermal)             CV                S
                      KCal/Mol        Cal/Mol-Kelvin    Cal/Mol-Kelvin
 Total                   18.421              6.428             52.229
 Electronic               0.000              0.000              0.000
 Translational            0.889              2.981             36.130
 Rotational               0.889              2.981             16.011
 Vibrational             16.644              0.467              0.087
                       Q            Log10(Q)             Ln(Q)
 Total Bot       0.300084D-02         -2.522758         -5.808864
 Total V=0       0.457884D+10          9.660756         22.244712
 Vib (Bot)       0.659414D-12        -12.180842        -28.047424
 Vib (V=0)       0.100617D+01          0.002671          0.006151
 Electronic      0.100000D+01          0.000000          0.000000
 Translational   0.646199D+07          6.810366         15.681448
 Rotational      0.704235D+03          2.847718          6.557112
 ***** Axes restored to original set *****
 -------------------------------------------------------------------
 Center     Atomic                   Forces (Hartrees/Bohr)
 Number     Number              X              Y              Z
 -------------------------------------------------------------------
    1          6           0.000000000    0.000000000    0.000001099
    2          8           0.000000000    0.000000000   -0.000093433
    3          1          -0.000146702    0.000000000    0.000046167
    4          1           0.000146702    0.000000000    0.000046167
 -------------------------------------------------------------------
 Cartesian Forces:  Max     0.000146702 RMS     0.000068336
 ------------------------------------------------------------------------
           Internal Coordinate Forces (Hartree/Bohr or radian)
 Cent Atom N1     Length/X     N2     Alpha/Y      N3      Beta/Z       J
 ------------------------------------------------------------------------
   1  C 
   2  O     1  -0.000093(   1)
   3  H     1  -0.000149(   2)  2   0.000081(   4)
   4  H     1  -0.000149(   3)  2   0.000081(   5)  3   0.000000(   6)  0
 ------------------------------------------------------------------------
 Internal  Forces:  Max     0.000148874 RMS     0.000104982

 GradGradGradGradGradGradGradGradGradGradGradGradGradGradGradGradGradGrad
 Berny optimization.
 Search for a local minimum.
 Step number   1 out of a maximum of   2
 All quantities printed in internal units (Hartrees-Bohrs-Radians)
 Second derivative matrix not updated -- analytic derivatives used.
 The second derivative matrix:
                           r         a        co         d
           r            0.61443
           a           -0.04998   0.76259
           co           0.07590   0.11305   0.87729
           d            0.00000   0.00000   0.00000   0.06151
     Eigenvalues ---    0.55980   0.74303   0.951471000.00000
 Angle between quadratic step and forces=   7.16 degrees.
 Linear search not attempted -- first point.
 Variable       Old X    -DE/DX   Delta X   Delta X   Delta X     New X
                                 (Linear)    (Quad)   (Total)
    r         2.09463  -0.00030   0.00000  -0.00046  -0.00046   2.09417
    a         2.12934   0.00016   0.00000   0.00020   0.00020   2.12954
    co        2.27101  -0.00009   0.00000  -0.00009  -0.00009   2.27092
    d         3.14159   0.00000   0.00000   0.00000   0.00000   3.14159
         Item               Value     Threshold  Converged?
 Maximum Force            0.000298     0.000450     YES
 RMS     Force            0.000203     0.000300     YES
 Maximum Displacement     0.000457     0.001800     YES
 RMS     Displacement     0.000253     0.001200     YES
 Predicted change in Energy=-8.820484D-08
 Optimization completed.
    -- Stationary point found.
                       ----------------------------
                       !   Optimized Parameters   !
                       ! (Angstroms and Degrees)  !
 ----------------------                            ----------------------
 !      Name          Value   Derivative information (Atomic Units)     !
 ------------------------------------------------------------------------
 !        r          1.1084   -DE/DX =   -0.0003                        !
 !        a        122.0024   -DE/DX =    0.0002                        !
 !       co          1.2018   -DE/DX =   -0.0001                        !
 !        d        180.0      -DE/DX =    0.0                           !
 ------------------------------------------------------------------------
 GradGradGradGradGradGradGradGradGradGradGradGradGradGradGradGradGradGrad


 Test job not archived.
 1\1\GINC-CLUSTER-BIO\Freq\RB3LYP\6-311+G(d,p)\C1H2O1\CHAQUIN\18-Mar-20
 12\1\\# B3LYP 6-311+G** GEOM=CHECKPOINT FREQ POP=NONE TEST\\*** Vibrat
 ions H2CO **** 0 1\\0,1\C\O,1,co\H,1,r,2,a\H,1,r,2,a,3,d,0\\r=1.108428
 49\a=122.00235067\co=1.20176925\d=180.\\Version=AM64L-G03RevC.02\State
 =1-A1\HF=-114.5417558\RMSD=3.809e-09\RMSF=6.834e-05\Dipole=0.,0.,-0.97
 43398\DipoleDeriv=0.826489,0.,0.,0.,0.1590192,0.,0.,0.,1.106888,-0.446
 6883,0.,0.,0.,-0.3403763,0.,0.,0.,-0.9791325,-0.1899003,0.,0.1377672,0
 .,0.0906785,0.,0.1073663,0.,-0.0638778,-0.1899003,0.,-0.1377672,0.,0.0
 906785,0.,-0.1073663,0.,-0.0638778\Polar=15.5586671,0.,9.21757,0.,0.,2
 1.6063695\PG=C02V [C2(C1O1),SGV(H2)]\NImag=0\\0.57227035,0.,0.17318434
 ,0.,0.,0.98154955,-0.10387071,0.,0.,0.07233599,0.,-0.05683529,0.,0.,0.
 01865367,0.,0.,-0.79129558,0.,0.,0.87728614,-0.23419982,0.,0.07587483,
 0.01576736,0.,0.01788162,0.23725012,0.,-0.05817453,0.,0.,0.01909081,0.
 ,0.,0.01957620,0.07994268,0.,-0.09512699,0.03635802,0.,-0.04299528,-0.
 10502857,0.,0.12867727,-0.23419982,0.,-0.07587483,0.01576736,0.,-0.017
 88162,-0.01881766,0.,-0.01127213,0.23725012,0.,-0.05817453,0.,0.,0.019
 09081,0.,0.,0.01950751,0.,0.,0.01957620,-0.07994268,0.,-0.09512699,-0.
 03635802,0.,-0.04299528,0.01127213,0.,0.00944500,0.10502857,0.,0.12867
 727\\0.,0.,-0.00000110,0.,0.,0.00009343,0.00014670,0.,-0.00004617,-0.0
 0014670,0.,-0.00004617\\\@


 AND ALL THIS SCIENCE I DON'T UNDERSTAND
 IT'S JUST MY JOB FIVE DAYS A WEEK

                           -- ELTON JOHN, "ROCKET MAN"
 Job cpu time:  0 days  0 hours  0 minutes 26.5 seconds.
 File lengths (MBytes):  RWF=     13 Int=      0 D2E=      0 Chk=     15 Scr=      1
 Normal termination of Gaussian 03 at Sun Mar 18 11:28:31 2012.
42.25user 4.43system 0:46.77elapsed 99%CPU (0avgtext+0avgdata 0maxresident)k
0inputs+0outputs (1major+1576178minor)pagefaults 0swaps
