 Entering Gaussian System, Link 0=/usr/local/g03/g03
 Initial command:
 /usr/local/g03/l1.exe /home/chaquin/ENSEIGNEMENT/Gau-4615.inp -scrdir=/home/chaquin/ENSEIGNEMENT/
 Entering Link 1 = /usr/local/g03/l1.exe PID=      4619.
  
 Copyright (c) 1988,1990,1992,1993,1995,1998,2003,2004, Gaussian, Inc.
                  All Rights Reserved.
  
 This is the Gaussian(R) 03 program.  It is based on the
 the Gaussian(R) 98 system (copyright 1998, Gaussian, Inc.),
 the Gaussian(R) 94 system (copyright 1995, Gaussian, Inc.),
 the Gaussian 92(TM) system (copyright 1992, Gaussian, Inc.),
 the Gaussian 90(TM) system (copyright 1990, Gaussian, Inc.),
 the Gaussian 88(TM) system (copyright 1988, Gaussian, Inc.),
 the Gaussian 86(TM) system (copyright 1986, Carnegie Mellon
 University), and the Gaussian 82(TM) system (copyright 1983,
 Carnegie Mellon University). Gaussian is a federally registered
 trademark of Gaussian, Inc.
  
 This software contains proprietary and confidential information,
 including trade secrets, belonging to Gaussian, Inc.
  
 This software is provided under written license and may be
 used, copied, transmitted, or stored only in accord with that
 written license.
  
 The following legend is applicable only to US Government
 contracts under FAR:
  
                    RESTRICTED RIGHTS LEGEND
  
 Use, reproduction and disclosure by the US Government is
 subject to restrictions as set forth in subparagraphs (a)
 and (c) of the Commercial Computer Software - Restricted
 Rights clause in FAR 52.227-19.
  
 Gaussian, Inc.
 340 Quinnipiac St., Bldg. 40, Wallingford CT 06492
  
  
 ---------------------------------------------------------------
 Warning -- This program may not be used in any manner that
 competes with the business of Gaussian, Inc. or will provide
 assistance to any competitor of Gaussian, Inc.  The licensee
 of this program is prohibited from giving any competitor of
 Gaussian, Inc. access to this program.  By using this program,
 the user acknowledges that Gaussian, Inc. is engaged in the
 business of creating and licensing software in the field of
 computational chemistry and represents and warrants to the
 licensee that it is not a competitor of Gaussian, Inc. and that
 it will not use this program in any manner prohibited above.
 ---------------------------------------------------------------
  

 Cite this work as:
 Gaussian 03, Revision C.02,
 M. J. Frisch, G. W. Trucks, H. B. Schlegel, G. E. Scuseria, 
 M. A. Robb, J. R. Cheeseman, J. A. Montgomery, Jr., T. Vreven, 
 K. N. Kudin, J. C. Burant, J. M. Millam, S. S. Iyengar, J. Tomasi, 
 V. Barone, B. Mennucci, M. Cossi, G. Scalmani, N. Rega, 
 G. A. Petersson, H. Nakatsuji, M. Hada, M. Ehara, K. Toyota, 
 R. Fukuda, J. Hasegawa, M. Ishida, T. Nakajima, Y. Honda, O. Kitao, 
 H. Nakai, M. Klene, X. Li, J. E. Knox, H. P. Hratchian, J. B. Cross, 
 C. Adamo, J. Jaramillo, R. Gomperts, R. E. Stratmann, O. Yazyev, 
 A. J. Austin, R. Cammi, C. Pomelli, J. W. Ochterski, P. Y. Ayala, 
 K. Morokuma, G. A. Voth, P. Salvador, J. J. Dannenberg, 
 V. G. Zakrzewski, S. Dapprich, A. D. Daniels, M. C. Strain, 
 O. Farkas, D. K. Malick, A. D. Rabuck, K. Raghavachari, 
 J. B. Foresman, J. V. Ortiz, Q. Cui, A. G. Baboul, S. Clifford, 
 J. Cioslowski, B. B. Stefanov, G. Liu, A. Liashenko, P. Piskorz, 
 I. Komaromi, R. L. Martin, D. J. Fox, T. Keith, M. A. Al-Laham, 
 C. Y. Peng, A. Nanayakkara, M. Challacombe, P. M. W. Gill, 
 B. Johnson, W. Chen, M. W. Wong, C. Gonzalez, and J. A. Pople, 
 Gaussian, Inc., Wallingford CT, 2004.
 
 ******************************************
 Gaussian 03:  AM64L-G03RevC.02 12-Jun-2004
                18-Mar-2012 
 ******************************************
 %chk=geom
 ----------------------------------------------------
 # B3LYP 6-311+G** geom=checkpoint freq pop=none test
 ----------------------------------------------------
 1/10=4,29=2,30=1,38=1/1,3;
 2/40=1/2;
 3/5=4,6=6,7=111,11=2,16=1,25=1,30=1,74=-5/1,2,3;
 4//1;
 5/5=2,38=5/2;
 8/6=4,10=90,11=11/1;
 11/6=1,8=1,9=11,15=111,16=1/1,2,10;
 10/6=1/2;
 7/8=1,10=1,25=1/1,2,3,16;
 1/10=4,30=1/3;
 99//99;
 ---------------------------
 *** Vibrations NH3 **** 0 1
 ---------------------------
 Z-Matrix taken from the checkpoint file:
 geom.chk
 Charge =  0 Multiplicity = 1
 N
 X,1,x
 H,1,ph,2,a
 H,1,ph,2,a,3,d,0
 H,1,ph,2,a,3,-d,0
      Variables:
 ph=1.01467982
 a=111.00079737
      Constants:
 x=1.
 d=120.
 Recover connectivity data from disk.

 GradGradGradGradGradGradGradGradGradGradGradGradGradGradGradGradGradGrad
 Berny optimization.
 Initialization pass.
                       ----------------------------
                       !    Initial Parameters    !
                       ! (Angstroms and Degrees)  !
 ----------------------                            ----------------------
 !      Name          Value   Derivative information (Atomic Units)     !
 ------------------------------------------------------------------------
 !       ph          1.0147   calculate D2E/DX2 analytically            !
 !        a        111.0008   calculate D2E/DX2 analytically            !
 !        x          1.0      frozen, calculate D2E/DX2 analytically    !
 !        d        120.0      frozen, calculate D2E/DX2 analytically    !
 ------------------------------------------------------------------------
 Trust Radius=3.00D-01 FncErr=1.00D-07 GrdErr=1.00D-07
 Number of steps in this run=   2 maximum allowed number of steps=   2.
 GradGradGradGradGradGradGradGradGradGradGradGradGradGradGradGradGradGrad

                          Input orientation:                          
 ---------------------------------------------------------------------
 Center     Atomic     Atomic              Coordinates (Angstroms)
 Number     Number      Type              X           Y           Z
 ---------------------------------------------------------------------
    1          7             0        0.000000    0.000000    0.109093
    2          1             0        0.947280    0.000000   -0.254549
    3          1             0       -0.473640   -0.820369   -0.254549
    4          1             0       -0.473640    0.820369   -0.254549
 ---------------------------------------------------------------------
                    Distance matrix (angstroms):
                    1          2          3          4
     1  N    0.000000
     2  H    1.014680   0.000000
     3  H    1.014680   1.640737   0.000000
     4  H    1.014680   1.640737   1.640737   0.000000
 Stoichiometry    H3N
 Framework group  C3V[C3(N),3SGV(H)]
 Deg. of freedom     2
 Full point group                 C3V     NOp   6
 Largest Abelian subgroup         CS      NOp   2
 Largest concise Abelian subgroup CS      NOp   2
                         Standard orientation:                         
 ---------------------------------------------------------------------
 Center     Atomic     Atomic              Coordinates (Angstroms)
 Number     Number      Type              X           Y           Z
 ---------------------------------------------------------------------
    1          7             0        0.000000    0.000000    0.109093
    2          1             0        0.000000    0.947280   -0.254549
    3          1             0        0.820369   -0.473640   -0.254549
    4          1             0       -0.820369   -0.473640   -0.254549
 ---------------------------------------------------------------------
 Rotational constants (GHZ):    299.8647201    299.8647201    186.2747178
 Standard basis: 6-311+G(d,p) (5D, 7F)
 There are    27 symmetry adapted basis functions of A'  symmetry.
 There are    13 symmetry adapted basis functions of A"  symmetry.
 Integral buffers will be    131072 words long.
 Raffenetti 2 integral format.
 Two-electron integral symmetry is turned on.
    40 basis functions,    60 primitive gaussians,    41 cartesian basis functions
     5 alpha electrons        5 beta electrons
       nuclear repulsion energy        11.9195207547 Hartrees.
 NAtoms=    4 NActive=    4 NUniq=    2 SFac= 5.66D+00 NAtFMM=   60 Big=F
 One-electron integrals computed using PRISM.
 NBasis=    40 RedAO= T  NBF=    27    13
 NBsUse=    40 1.00D-06 NBFU=    27    13
 Harris functional with IExCor=  402 diagonalized for initial guess.
 ExpMin= 6.39D-02 ExpMax= 6.29D+03 ExpMxC= 9.49D+02 IAcc=2 IRadAn=         4 AccDes= 0.00D+00
 HarFok:  IExCor= 402 AccDes= 0.00D+00 IRadAn=         4 IDoV=1
 ScaDFX=  1.000000  1.000000  1.000000  1.000000
 Initial guess orbital symmetries:
       Occupied  (A1) (A1) (E) (E) (A1)
       Virtual   (A1) (E) (E) (A1) (E) (E) (A1) (E) (E) (A1) (E)
                 (E) (A1) (A1) (E) (E) (A2) (A1) (E) (E) (E) (E)
                 (A1) (E) (E) (A1) (E) (E) (A1) (E) (E) (A1) (E)
                 (E) (A1)
 The electronic state of the initial guess is 1-A1.
 Requested convergence on RMS density matrix=1.00D-08 within 128 cycles.
 Requested convergence on MAX density matrix=1.00D-06.
 Requested convergence on             energy=1.00D-06.
 No special actions if energy rises.
 Keep R1 integrals in memory in canonical form, NReq=     1285492.
 Integral accuracy reduced to 1.0D-05 until final iterations.
 Initial convergence to 1.0D-05 achieved.  Increase integral accuracy.
 SCF Done:  E(RB+HF-LYP) =  -56.5826357941     A.U. after   10 cycles
             Convg  =    0.4400D-08             -V/T =  2.0043
             S**2   =   0.0000
 Range of M.O.s used for correlation:     1    40
 NBasis=    40 NAE=     5 NBE=     5 NFC=     0 NFV=     0
 NROrb=     40 NOA=     5 NOB=     5 NVA=    35 NVB=    35
 Symmetrizing basis deriv contribution to polar:
 IMax=3 JMax=2 DiffMx= 0.00D+00
 G2DrvN: will do    5 centers at a time, making    1 passes doing MaxLOS=2.
 FoFDir/FoFCou used for L=0 through L=2.
 DoAtom=TTTT
          Differentiating once with respect to electric field.
                with respect to dipole field.
          Differentiating once with respect to nuclear coordinates.
          Store integrals in memory, NReq=     1191662.
          There are   9 degrees of freedom in the 1st order CPHF.
     9 vectors were produced by pass  0.
 AX will form   9 AO Fock derivatives at one time.
     9 vectors were produced by pass  1.
     9 vectors were produced by pass  2.
     9 vectors were produced by pass  3.
     9 vectors were produced by pass  4.
     4 vectors were produced by pass  5.
     2 vectors were produced by pass  6.
 Inv2:  IOpt= 1 Iter= 1 AM= 7.38D-16 Conv= 1.00D-12.
 Inverted reduced A of dimension   51 with in-core refinement.
 Isotropic polarizability for W=    0.000000       11.62 Bohr**3.
 End of Minotr Frequency-dependent properties file   721 does not exist.
 Full mass-weighted force constant matrix:
 Low frequencies ---   -0.2568   -0.1729   -0.0039   20.0922   20.1541   33.1539
 Low frequencies --- 1003.6158 1666.5745 1666.5746
 Diagonal vibrational polarizability:
        0.2637053       0.2637015       5.8072517
 Harmonic frequencies (cm**-1), IR intensities (KM/Mole), Raman scattering
 activities (A**4/AMU), depolarization ratios for plane and unpolarized
 incident light, reduced masses (AMU), force constants (mDyne/A),
 and normal coordinates:
                     1                      2                      3
                    A1                      E                      E
 Frequencies --  1003.6158              1666.5745              1666.5746
 Red. masses --     1.1836                 1.0681                 1.0681
 Frc consts  --     0.7024                 1.7479                 1.7479
 IR Inten    --   217.1014                26.4213                26.4208
 Atom AN      X      Y      Z        X      Y      Z        X      Y      Z
   1   7     0.00   0.00   0.12    -0.07   0.00   0.00     0.00   0.07   0.00
   2   1     0.00  -0.20  -0.54     0.77   0.00   0.00     0.00   0.13   0.24
   3   1    -0.17   0.10  -0.54     0.09   0.39  -0.21    -0.39  -0.54  -0.12
   4   1     0.17   0.10  -0.54     0.09  -0.39   0.21     0.39  -0.54  -0.12
                     4                      5                      6
                    A1                      E                      E
 Frequencies --  3477.5533              3604.7365              3604.7368
 Red. masses --     1.0245                 1.0909                 1.0909
 Frc consts  --     7.2997                 8.3521                 8.3521
 IR Inten    --     3.0621                 3.7217                 3.7212
 Atom AN      X      Y      Z        X      Y      Z        X      Y      Z
   1   7     0.00   0.00   0.04     0.00   0.08   0.00     0.08   0.00   0.00
   2   1     0.00   0.55  -0.17     0.00  -0.76   0.28     0.02   0.00   0.00
   3   1     0.48  -0.28  -0.17     0.34  -0.17  -0.14    -0.57   0.34   0.25
   4   1    -0.48  -0.28  -0.17    -0.34  -0.17  -0.14    -0.57  -0.34  -0.25

 -------------------
 - Thermochemistry -
 -------------------
 Temperature   298.150 Kelvin.  Pressure   1.00000 Atm.
 Atom  1 has atomic number  7 and mass  14.00307
 Atom  2 has atomic number  1 and mass   1.00783
 Atom  3 has atomic number  1 and mass   1.00783
 Atom  4 has atomic number  1 and mass   1.00783
 Molecular mass:    17.02655 amu.
 Principal axes and moments of inertia in atomic units:
                           1         2         3
     EIGENVALUES --     6.01852   6.01852   9.68860
           X            0.68736   0.72631   0.00000
           Y            0.72631  -0.68736   0.00000
           Z            0.00000   0.00000   1.00000
 This molecule is an oblate symmetric top.
 Rotational symmetry number  3.
 Rotational temperatures (Kelvin)     14.39122    14.39122     8.93977
 Rotational constants (GHZ):         299.86472   299.86472   186.27472
 Zero-point vibrational energy      89862.2 (Joules/Mol)
                                   21.47759 (Kcal/Mol)
 Vibrational temperatures:   1443.98  2397.83  2397.83  5003.42  5186.41
          (Kelvin)           5186.41
 
 Zero-point correction=                           0.034227 (Hartree/Particle)
 Thermal correction to Energy=                    0.037100
 Thermal correction to Enthalpy=                  0.038045
 Thermal correction to Gibbs Free Energy=         0.016195
 Sum of electronic and zero-point Energies=            -56.548409
 Sum of electronic and thermal Energies=               -56.545535
 Sum of electronic and thermal Enthalpies=             -56.544591
 Sum of electronic and thermal Free Energies=          -56.566441
 
                     E (Thermal)             CV                S
                      KCal/Mol        Cal/Mol-Kelvin    Cal/Mol-Kelvin
 Total                   23.281              6.418             45.987
 Electronic               0.000              0.000              0.000
 Translational            0.889              2.981             34.441
 Rotational               0.889              2.981             11.443
 Vibrational             21.503              0.456              0.104
                       Q            Log10(Q)             Ln(Q)
 Total Bot       0.355667D-07         -7.448957        -17.151857
 Total V=0       0.196882D+09          8.294207         19.098116
 Vib (Bot)       0.182202D-15        -15.739447        -36.241416
 Vib (V=0)       0.100859D+01          0.003716          0.008557
 Electronic      0.100000D+01          0.000000          0.000000
 Translational   0.276150D+07          6.441145         14.831285
 Rotational      0.706879D+02          1.849345          4.258275
 ***** Axes restored to original set *****
 -------------------------------------------------------------------
 Center     Atomic                   Forces (Hartrees/Bohr)
 Number     Number              X              Y              Z
 -------------------------------------------------------------------
    1          7           0.000000000    0.000000000   -0.000215859
    2          1          -0.000052196    0.000000000    0.000071953
    3          1           0.000026098    0.000045203    0.000071953
    4          1           0.000026098   -0.000045203    0.000071953
 -------------------------------------------------------------------
 Cartesian Forces:  Max     0.000215859 RMS     0.000076540
 ------------------------------------------------------------------------
           Internal Coordinate Forces (Hartree/Bohr or radian)
 Cent Atom N1     Length/X     N2     Alpha/Y      N3      Beta/Z       J
 ------------------------------------------------------------------------
   1  N 
      X     1   0.000000(   1)
   2  H     1  -0.000075(   2)  2  -0.000093(   5)
   3  H     1  -0.000075(   3)  2  -0.000093(   6)  3   0.000000(   8)  0
   4  H     1  -0.000075(   4)  2  -0.000093(   7)  3   0.000000(   9)  0
 ------------------------------------------------------------------------
 Internal  Forces:  Max     0.000092934 RMS     0.000068774

 GradGradGradGradGradGradGradGradGradGradGradGradGradGradGradGradGradGrad
 Berny optimization.
 Search for a local minimum.
 Step number   1 out of a maximum of   2
 All quantities printed in internal units (Hartrees-Bohrs-Radians)
 Second derivative matrix not updated -- analytic derivatives used.
 The second derivative matrix:
                          ph         a         x         d
           ph           1.35186
           a           -0.19138   0.38340
           x            0.00000   0.00000   0.00000
           d            0.00000   0.00000   0.00000   0.56567
     Eigenvalues ---    0.34695   1.388311000.000001000.00000
 Angle between quadratic step and forces=  20.39 degrees.
 Linear search not attempted -- first point.
 Variable       Old X    -DE/DX   Delta X   Delta X   Delta X     New X
                                 (Linear)    (Quad)   (Total)
    ph        1.91747  -0.00022   0.00000  -0.00029  -0.00029   1.91718
    a         1.93733  -0.00028   0.00000  -0.00087  -0.00087   1.93646
    x         1.88973   0.00000   0.00000   0.00000   0.00000   1.88973
    d         2.09440   0.00000   0.00000   0.00000   0.00000   2.09440
         Item               Value     Threshold  Converged?
 Maximum Force            0.000279     0.000450     YES
 RMS     Force            0.000253     0.000300     YES
 Maximum Displacement     0.000871     0.001800     YES
 RMS     Displacement     0.000459     0.001200     YES
 Predicted change in Energy=-1.537305D-07
 Optimization completed.
    -- Stationary point found.
                       ----------------------------
                       !   Optimized Parameters   !
                       ! (Angstroms and Degrees)  !
 ----------------------                            ----------------------
 !      Name          Value   Derivative information (Atomic Units)     !
 ------------------------------------------------------------------------
 !       ph          1.0147   -DE/DX =   -0.0002                        !
 !        a        111.0008   -DE/DX =   -0.0003                        !
 !        x          1.0      -DE/DX =    0.0                           !
 !        d        120.0      -DE/DX =    0.0                           !
 ------------------------------------------------------------------------
 GradGradGradGradGradGradGradGradGradGradGradGradGradGradGradGradGradGrad


 Test job not archived.
 1\1\GINC-CLUSTER-BIO\Freq\RB3LYP\6-311+G(d,p)\H3N1\CHAQUIN\18-Mar-2012
 \1\\# B3LYP 6-311+G** GEOM=CHECKPOINT FREQ POP=NONE TEST\\*** Vibratio
 ns NH3 **** 0 1\\0,1\N\X,1,x\H,1,ph,2,a\H,1,ph,2,a,3,d,0\H,1,ph,2,a,3,
 -d,0\\ph=1.01467982\a=111.00079737\x=1.\d=120.\\Version=AM64L-G03RevC.
 02\State=1-A1\HF=-56.5826358\RMSD=4.400e-09\RMSF=7.654e-05\Dipole=0.,0
 .,-0.6683335\DipoleDeriv=-0.4079539,0.,0.0000274,0.,-0.4079344,0.,-0.0
 000138,0.,-0.6787301,0.0870358,0.,0.1167762,0.,0.1849271,0.,0.1445017,
 0.,0.2262087,0.1604567,-0.0423886,-0.058395,-0.0423849,0.1115061,-0.10
 11357,-0.0722474,-0.125133,0.2262347,0.1604567,0.0423886,-0.058395,0.0
 423849,0.1115061,0.1011357,-0.0722474,0.125133,0.2262347\Polar=10.8409
 929,0.,10.8406885,-0.0005791,0.,13.1910661\PG=C03V [C3(N1),3SGV(H1)]\N
 Imag=0\\0.65484131,0.,0.65484350,-0.00000223,0.,0.19777850,-0.37503364
 ,0.,0.11438166,0.40769606,0.,-0.06152774,0.,0.,0.05887547,0.16754313,0
 .,-0.06592577,-0.13409551,0.,0.06485419,-0.13990402,-0.13575218,-0.057
 19027,-0.01633132,-0.03320186,-0.01672361,0.14608062,-0.13575185,-0.29
 665752,-0.09905679,0.00261806,0.00132624,-0.00172695,0.15104375,0.3204
 9092,-0.08377101,-0.14509579,-0.06592607,0.00985739,0.01361960,0.00053
 579,0.06704776,0.11613012,0.06485419,-0.13990402,0.13575218,-0.0571902
 7,-0.01633132,0.03320186,-0.01672361,0.01015502,-0.01790996,0.00686622
 ,0.14608062,0.13575185,-0.29665752,0.09905679,-0.00261806,0.00132624,0
 .00172695,0.01790996,-0.02516011,0.01534655,-0.15104375,0.32049092,-0.
 08377101,0.14509579,-0.06592607,0.00985739,-0.01361960,0.00053579,0.00
 686622,-0.01534655,0.00053579,0.06704776,-0.11613012,0.06485419\\0.,0.
 ,0.00021586,0.00005220,0.,-0.00007195,-0.00002610,-0.00004520,-0.00007
 195,-0.00002610,0.00004520,-0.00007195\\\@


 LIFE CAN ONLY BE UNDERSTOOD BACKWARD, BUT MUST
 BE LIVED FORWARD. -- KIRKEGAARD
 Job cpu time:  0 days  0 hours  0 minutes 16.2 seconds.
 File lengths (MBytes):  RWF=     13 Int=      0 D2E=      0 Chk=     13 Scr=      1
 Normal termination of Gaussian 03 at Sun Mar 18 11:08:20 2012.
23.16user 3.26system 0:26.45elapsed 99%CPU (0avgtext+0avgdata 0maxresident)k
0inputs+0outputs (0major+1107142minor)pagefaults 0swaps
