[Molden Format]
[Atoms] Angs
 N     1  7     0.000000     0.000000     0.109093
 H     2  1     0.947280     0.000000    -0.254549
 H     3  1    -0.473640    -0.820369    -0.254549
 H     4  1    -0.473640     0.820369    -0.254549
[FREQ]
 1003.6158
 1666.5745
 1666.5746
 3477.5533
 3604.7365
 3604.7368
[INT]
  217.1014
   26.4213
   26.4208
    3.0621
    3.7217
    3.7212
[FR-COORD]
 N     0.000000     0.000000     0.206156
 H     1.790100     0.000000    -0.481028
 H    -0.895050    -1.550273    -0.481028
 H    -0.895050     1.550273    -0.481028
[FR-NORM-COORD]
vibration     1
    0.000000     0.000000     0.120000
    0.000000    -0.200000    -0.540000
   -0.170000     0.100000    -0.540000
    0.170000     0.100000    -0.540000
vibration     2
   -0.070000     0.000000     0.000000
    0.770000     0.000000     0.000000
    0.090000     0.390000    -0.210000
    0.090000    -0.390000     0.210000
vibration     3
    0.000000     0.070000     0.000000
    0.000000     0.130000     0.240000
   -0.390000    -0.540000    -0.120000
    0.390000    -0.540000    -0.120000
vibration     4
    0.000000     0.000000     0.040000
    0.000000     0.550000    -0.170000
    0.480000    -0.280000    -0.170000
   -0.480000    -0.280000    -0.170000
vibration     5
    0.000000     0.080000     0.000000
    0.000000    -0.760000     0.280000
    0.340000    -0.170000    -0.140000
   -0.340000    -0.170000    -0.140000
vibration     6
    0.080000     0.000000     0.000000
    0.020000     0.000000     0.000000
   -0.570000     0.340000     0.250000
   -0.570000    -0.340000    -0.250000
