 Entering Gaussian System, Link 0=/usr/local/g03/g03
 Initial command:
 /usr/local/g03/l1.exe /home/chaquin/ENSEIGNEMENT/Gau-4504.inp -scrdir=/home/chaquin/ENSEIGNEMENT/
 Entering Link 1 = /usr/local/g03/l1.exe PID=      4508.
  
 Copyright (c) 1988,1990,1992,1993,1995,1998,2003,2004, Gaussian, Inc.
                  All Rights Reserved.
  
 This is the Gaussian(R) 03 program.  It is based on the
 the Gaussian(R) 98 system (copyright 1998, Gaussian, Inc.),
 the Gaussian(R) 94 system (copyright 1995, Gaussian, Inc.),
 the Gaussian 92(TM) system (copyright 1992, Gaussian, Inc.),
 the Gaussian 90(TM) system (copyright 1990, Gaussian, Inc.),
 the Gaussian 88(TM) system (copyright 1988, Gaussian, Inc.),
 the Gaussian 86(TM) system (copyright 1986, Carnegie Mellon
 University), and the Gaussian 82(TM) system (copyright 1983,
 Carnegie Mellon University). Gaussian is a federally registered
 trademark of Gaussian, Inc.
  
 This software contains proprietary and confidential information,
 including trade secrets, belonging to Gaussian, Inc.
  
 This software is provided under written license and may be
 used, copied, transmitted, or stored only in accord with that
 written license.
  
 The following legend is applicable only to US Government
 contracts under FAR:
  
                    RESTRICTED RIGHTS LEGEND
  
 Use, reproduction and disclosure by the US Government is
 subject to restrictions as set forth in subparagraphs (a)
 and (c) of the Commercial Computer Software - Restricted
 Rights clause in FAR 52.227-19.
  
 Gaussian, Inc.
 340 Quinnipiac St., Bldg. 40, Wallingford CT 06492
  
  
 ---------------------------------------------------------------
 Warning -- This program may not be used in any manner that
 competes with the business of Gaussian, Inc. or will provide
 assistance to any competitor of Gaussian, Inc.  The licensee
 of this program is prohibited from giving any competitor of
 Gaussian, Inc. access to this program.  By using this program,
 the user acknowledges that Gaussian, Inc. is engaged in the
 business of creating and licensing software in the field of
 computational chemistry and represents and warrants to the
 licensee that it is not a competitor of Gaussian, Inc. and that
 it will not use this program in any manner prohibited above.
 ---------------------------------------------------------------
  

 Cite this work as:
 Gaussian 03, Revision C.02,
 M. J. Frisch, G. W. Trucks, H. B. Schlegel, G. E. Scuseria, 
 M. A. Robb, J. R. Cheeseman, J. A. Montgomery, Jr., T. Vreven, 
 K. N. Kudin, J. C. Burant, J. M. Millam, S. S. Iyengar, J. Tomasi, 
 V. Barone, B. Mennucci, M. Cossi, G. Scalmani, N. Rega, 
 G. A. Petersson, H. Nakatsuji, M. Hada, M. Ehara, K. Toyota, 
 R. Fukuda, J. Hasegawa, M. Ishida, T. Nakajima, Y. Honda, O. Kitao, 
 H. Nakai, M. Klene, X. Li, J. E. Knox, H. P. Hratchian, J. B. Cross, 
 C. Adamo, J. Jaramillo, R. Gomperts, R. E. Stratmann, O. Yazyev, 
 A. J. Austin, R. Cammi, C. Pomelli, J. W. Ochterski, P. Y. Ayala, 
 K. Morokuma, G. A. Voth, P. Salvador, J. J. Dannenberg, 
 V. G. Zakrzewski, S. Dapprich, A. D. Daniels, M. C. Strain, 
 O. Farkas, D. K. Malick, A. D. Rabuck, K. Raghavachari, 
 J. B. Foresman, J. V. Ortiz, Q. Cui, A. G. Baboul, S. Clifford, 
 J. Cioslowski, B. B. Stefanov, G. Liu, A. Liashenko, P. Piskorz, 
 I. Komaromi, R. L. Martin, D. J. Fox, T. Keith, M. A. Al-Laham, 
 C. Y. Peng, A. Nanayakkara, M. Challacombe, P. M. W. Gill, 
 B. Johnson, W. Chen, M. W. Wong, C. Gonzalez, and J. A. Pople, 
 Gaussian, Inc., Wallingford CT, 2004.
 
 ******************************************
 Gaussian 03:  AM64L-G03RevC.02 12-Jun-2004
                18-Mar-2012 
 ******************************************
 %chk=geom
 ----------------------------------------------------
 # B3LYP 6-311+G** geom=checkpoint freq pop=none test
 ----------------------------------------------------
 1/10=4,29=2,30=1,38=1/1,3;
 2/40=1/2;
 3/5=4,6=6,7=111,11=2,16=1,25=1,30=1,74=-5/1,2,3;
 4//1;
 5/5=2,38=5/2;
 8/6=4,10=90,11=11/1;
 11/6=1,8=1,9=11,15=111,16=1/1,2,10;
 10/6=1/2;
 7/8=1,10=1,25=1/1,2,3,16;
 1/10=4,30=1/3;
 99//99;
 ---------------------------
 *** Vibrations H2O **** 0 1
 ---------------------------
 Z-Matrix taken from the checkpoint file:
 geom.chk
 Charge =  0 Multiplicity = 1
 O
 X,1,x
 O,1,r,2,a
 O,1,r,2,a,3,d,0
      Variables:
 r=1.25616078
 a=59.22743695
      Constants:
 x=1.
 d=180.
 Recover connectivity data from disk.

 GradGradGradGradGradGradGradGradGradGradGradGradGradGradGradGradGradGrad
 Berny optimization.
 Initialization pass.
                       ----------------------------
                       !    Initial Parameters    !
                       ! (Angstroms and Degrees)  !
 ----------------------                            ----------------------
 !      Name          Value   Derivative information (Atomic Units)     !
 ------------------------------------------------------------------------
 !        r          1.2562   calculate D2E/DX2 analytically            !
 !        a         59.2274   calculate D2E/DX2 analytically            !
 !        x          1.0      frozen, calculate D2E/DX2 analytically    !
 !        d        180.0      frozen, calculate D2E/DX2 analytically    !
 ------------------------------------------------------------------------
 Trust Radius=3.00D-01 FncErr=1.00D-07 GrdErr=1.00D-07
 Number of steps in this run=   2 maximum allowed number of steps=   2.
 GradGradGradGradGradGradGradGradGradGradGradGradGradGradGradGradGradGrad

                          Input orientation:                          
 ---------------------------------------------------------------------
 Center     Atomic     Atomic              Coordinates (Angstroms)
 Number     Number      Type              X           Y           Z
 ---------------------------------------------------------------------
    1          8             0        0.000000    0.000000   -0.428461
    2          8             0        1.079300    0.000000    0.214230
    3          8             0       -1.079300    0.000000    0.214230
 ---------------------------------------------------------------------
                    Distance matrix (angstroms):
                    1          2          3
     1  O    0.000000
     2  O    1.256161   0.000000
     3  O    1.256161   2.158599   0.000000
 Stoichiometry    O3
 Framework group  C2V[C2(O),SGV(O2)]
 Deg. of freedom     2
 Full point group                 C2V     NOp   4
 Largest Abelian subgroup         C2V     NOp   4
 Largest concise Abelian subgroup C2      NOp   2
                         Standard orientation:                         
 ---------------------------------------------------------------------
 Center     Atomic     Atomic              Coordinates (Angstroms)
 Number     Number      Type              X           Y           Z
 ---------------------------------------------------------------------
    1          8             0        0.000000    0.000000    0.428461
    2          8             0        0.000000    1.079300   -0.214230
    3          8             0        0.000000   -1.079300   -0.214230
 ---------------------------------------------------------------------
 Rotational constants (GHZ):    114.7417716     13.5619214     12.1284030
 Standard basis: 6-311+G(d,p) (5D, 7F)
 There are    27 symmetry adapted basis functions of A1  symmetry.
 There are     7 symmetry adapted basis functions of A2  symmetry.
 There are    11 symmetry adapted basis functions of B1  symmetry.
 There are    21 symmetry adapted basis functions of B2  symmetry.
 Integral buffers will be    131072 words long.
 Raffenetti 2 integral format.
 Two-electron integral symmetry is turned on.
    66 basis functions,   108 primitive gaussians,    69 cartesian basis functions
    12 alpha electrons       12 beta electrons
       nuclear repulsion energy        69.6114841340 Hartrees.
 NAtoms=    3 NActive=    3 NUniq=    2 SFac= 2.76D+00 NAtFMM=   60 Big=F
 One-electron integrals computed using PRISM.
 NBasis=    66 RedAO= T  NBF=    27     7    11    21
 NBsUse=    66 1.00D-06 NBFU=    27     7    11    21
 Harris functional with IExCor=  402 diagonalized for initial guess.
 ExpMin= 8.45D-02 ExpMax= 8.59D+03 ExpMxC= 1.30D+03 IAcc=2 IRadAn=         4 AccDes= 0.00D+00
 HarFok:  IExCor= 402 AccDes= 0.00D+00 IRadAn=         4 IDoV=1
 ScaDFX=  1.000000  1.000000  1.000000  1.000000
 Initial guess orbital symmetries:
       Occupied  (A1) (B2) (A1) (A1) (B2) (A1) (B2) (A1) (B1) (A2)
                 (B2) (A1)
       Virtual   (B1) (A1) (A1) (B2) (B1) (A1) (B2) (A2) (A1) (B2)
                 (B1) (A1) (B2) (A1) (B2) (A1) (B1) (A1) (B2) (B2)
                 (A2) (A1) (B1) (B2) (A1) (B2) (A1) (A2) (A1) (B1)
                 (B2) (A1) (A2) (B1) (B2) (A1) (B2) (B1) (A2) (A1)
                 (A1) (B2) (B1) (B2) (A1) (A2) (B2) (A1) (B1) (A1)
                 (B2) (A1) (A1) (B2)
 The electronic state of the initial guess is 1-A1.
 Requested convergence on RMS density matrix=1.00D-08 within 128 cycles.
 Requested convergence on MAX density matrix=1.00D-06.
 Requested convergence on             energy=1.00D-06.
 No special actions if energy rises.
 Keep R1 integrals in memory in canonical form, NReq=     3968978.
 Integral accuracy reduced to 1.0D-05 until final iterations.
 Initial convergence to 1.0D-05 achieved.  Increase integral accuracy.
 SCF Done:  E(RB+HF-LYP) =  -225.480560006     A.U. after   11 cycles
             Convg  =    0.7038D-08             -V/T =  2.0023
             S**2   =   0.0000
 Range of M.O.s used for correlation:     1    66
 NBasis=    66 NAE=    12 NBE=    12 NFC=     0 NFV=     0
 NROrb=     66 NOA=    12 NOB=    12 NVA=    54 NVB=    54

 **** Warning!!: The largest alpha MO coefficient is  0.25515239D+02

 Symmetrizing basis deriv contribution to polar:
 IMax=3 JMax=2 DiffMx= 0.00D+00
 G2DrvN: will do    4 centers at a time, making    1 passes doing MaxLOS=2.
 FoFDir/FoFCou used for L=0 through L=2.
 DoAtom=TTT
          Differentiating once with respect to electric field.
                with respect to dipole field.
          Differentiating once with respect to nuclear coordinates.
          Store integrals in memory, NReq=     3738103.
          There are   9 degrees of freedom in the 1st order CPHF.
     9 vectors were produced by pass  0.
 AX will form   9 AO Fock derivatives at one time.
     9 vectors were produced by pass  1.
     9 vectors were produced by pass  2.
     9 vectors were produced by pass  3.
     9 vectors were produced by pass  4.
     9 vectors were produced by pass  5.
     8 vectors were produced by pass  6.
     2 vectors were produced by pass  7.
     1 vectors were produced by pass  8.
 Inv2:  IOpt= 1 Iter= 1 AM= 1.02D-15 Conv= 1.00D-12.
 Inverted reduced A of dimension   65 with in-core refinement.
 Isotropic polarizability for W=    0.000000       16.33 Bohr**3.
 End of Minotr Frequency-dependent properties file   721 does not exist.
 Full mass-weighted force constant matrix:
 Low frequencies ---   -0.0018   -0.0016   -0.0014   11.2110   19.6660   20.7515
 Low frequencies ---  746.6118 1183.0520 1245.4269
 Diagonal vibrational polarizability:
        0.0000000       4.5941153       0.4023469
 Harmonic frequencies (cm**-1), IR intensities (KM/Mole), Raman scattering
 activities (A**4/AMU), depolarization ratios for plane and unpolarized
 incident light, reduced masses (AMU), force constants (mDyne/A),
 and normal coordinates:
                     1                      2                      3
                    A1                     B2                     A1
 Frequencies --   746.6118              1183.0520              1245.4269
 Red. masses --    15.9949                15.9949                15.9949
 Frc consts  --     5.2532                13.1898                14.6173
 IR Inten    --     8.3146               238.9332                 0.0542
 Atom AN      X      Y      Z        X      Y      Z        X      Y      Z
   1   8     0.00   0.00  -0.45     0.00   0.77   0.00     0.00   0.00   0.68
   2   8     0.00   0.59   0.23     0.00  -0.39   0.23     0.00   0.39  -0.34
   3   8     0.00  -0.59   0.23     0.00  -0.39  -0.23     0.00  -0.39  -0.34

 -------------------
 - Thermochemistry -
 -------------------
 Temperature   298.150 Kelvin.  Pressure   1.00000 Atm.
 Atom  1 has atomic number  8 and mass  15.99491
 Atom  2 has atomic number  8 and mass  15.99491
 Atom  3 has atomic number  8 and mass  15.99491
 Molecular mass:    47.98474 amu.
 Principal axes and moments of inertia in atomic units:
                           1         2         3
     EIGENVALUES --    15.72872 133.07415 148.80287
           X            0.00000   0.00000   1.00000
           Y            1.00000   0.00000   0.00000
           Z            0.00000   1.00000   0.00000
 This molecule is an asymmetric top.
 Rotational symmetry number  2.
 Rotational temperatures (Kelvin)      5.50673     0.65087     0.58207
 Rotational constants (GHZ):         114.74177    13.56192    12.12840
 Zero-point vibrational energy      18991.3 (Joules/Mol)
                                    4.53902 (Kcal/Mol)
 Vibrational temperatures:   1074.21  1702.15  1791.89
          (Kelvin)
 
 Zero-point correction=                           0.007233 (Hartree/Particle)
 Thermal correction to Energy=                    0.010193
 Thermal correction to Enthalpy=                  0.011137
 Thermal correction to Gibbs Free Energy=        -0.015877
 Sum of electronic and zero-point Energies=           -225.473327
 Sum of electronic and thermal Energies=              -225.470367
 Sum of electronic and thermal Enthalpies=            -225.469423
 Sum of electronic and thermal Free Energies=         -225.496437
 
                     E (Thermal)             CV                S
                      KCal/Mol        Cal/Mol-Kelvin    Cal/Mol-Kelvin
 Total                    6.396              7.098             56.857
 Electronic               0.000              0.000              0.000
 Translational            0.889              2.981             37.529
 Rotational               0.889              2.981             18.994
 Vibrational              4.619              1.136              0.334
                       Q            Log10(Q)             Ln(Q)
 Total Bot       0.200914D+08          7.303010         16.815803
 Total V=0       0.426709D+11         10.630131         24.476782
 Vib (Bot)       0.486839D-03         -3.312615         -7.627578
 Vib (V=0)       0.103396D+01          0.014506          0.033401
 Electronic      0.100000D+01          0.000000          0.000000
 Translational   0.130650D+08          7.116110         16.385449
 Rotational      0.315875D+04          3.499516          8.057932
 ***** Axes restored to original set *****
 -------------------------------------------------------------------
 Center     Atomic                   Forces (Hartrees/Bohr)
 Number     Number              X              Y              Z
 -------------------------------------------------------------------
    1          8           0.000000000    0.000000000   -0.000001953
    2          8           0.000010797    0.000000000    0.000000977
    3          8          -0.000010797    0.000000000    0.000000977
 -------------------------------------------------------------------
 Cartesian Forces:  Max     0.000010797 RMS     0.000005152
 ------------------------------------------------------------------------
           Internal Coordinate Forces (Hartree/Bohr or radian)
 Cent Atom N1     Length/X     N2     Alpha/Y      N3      Beta/Z       J
 ------------------------------------------------------------------------
   1  O 
      X     1   0.000000(   1)
   2  O     1   0.000010(   2)  2   0.000011(   4)
   3  O     1   0.000010(   3)  2   0.000011(   5)  3   0.000000(   6)  0
 ------------------------------------------------------------------------
 Internal  Forces:  Max     0.000011121 RMS     0.000008549

 GradGradGradGradGradGradGradGradGradGradGradGradGradGradGradGradGradGrad
 Berny optimization.
 Search for a local minimum.
 Step number   1 out of a maximum of   2
 All quantities printed in internal units (Hartrees-Bohrs-Radians)
 Second derivative matrix not updated -- analytic derivatives used.
 The second derivative matrix:
                           r         a         x         d
           r            1.18620
           a            0.20530   2.04209
           x            0.00000   0.00000   0.00000
           d            0.00000   0.00000   0.00000   0.00034
     Eigenvalues ---    1.13951   2.088791000.000001000.00000
 Angle between quadratic step and forces=  16.37 degrees.
 Linear search not attempted -- first point.
 Variable       Old X    -DE/DX   Delta X   Delta X   Delta X     New X
                                 (Linear)    (Quad)   (Total)
    r         2.37380   0.00002   0.00000   0.00001   0.00001   2.37381
    a         1.03371   0.00002   0.00000   0.00001   0.00001   1.03372
    x         1.88973   0.00000   0.00000   0.00000   0.00000   1.88973
    d         3.14159   0.00000   0.00000   0.00000   0.00000   3.14159
         Item               Value     Threshold  Converged?
 Maximum Force            0.000022     0.000450     YES
 RMS     Force            0.000021     0.000300     YES
 Maximum Displacement     0.000015     0.001800     YES
 RMS     Displacement     0.000009     0.001200     YES
 Predicted change in Energy=-2.497538D-10
 Optimization completed.
    -- Stationary point found.
                       ----------------------------
                       !   Optimized Parameters   !
                       ! (Angstroms and Degrees)  !
 ----------------------                            ----------------------
 !      Name          Value   Derivative information (Atomic Units)     !
 ------------------------------------------------------------------------
 !        r          1.2562   -DE/DX =    0.0                           !
 !        a         59.2274   -DE/DX =    0.0                           !
 !        x          1.0      -DE/DX =    0.0                           !
 !        d        180.0      -DE/DX =    0.0                           !
 ------------------------------------------------------------------------
 GradGradGradGradGradGradGradGradGradGradGradGradGradGradGradGradGradGrad


 Test job not archived.
 1\1\GINC-CLUSTER-BIO\Freq\RB3LYP\6-311+G(d,p)\O3\CHAQUIN\18-Mar-2012\1
 \\# B3LYP 6-311+G** GEOM=CHECKPOINT FREQ POP=NONE TEST\\*** Vibrations
  H2O **** 0 1\\0,1\O\X,1,x\O,1,r,2,a\O,1,r,2,a,3,d,0\\r=1.25616078\a=5
 9.22743695\x=1.\d=180.\\Version=AM64L-G03RevC.02\State=1-A1\HF=-225.48
 056\RMSD=7.038e-09\RMSF=5.152e-06\Dipole=0.,0.,-0.2730172\DipoleDeriv=
 1.5525338,0.,0.,0.,0.2248375,0.,0.,0.,0.1878884,-0.7762669,0.,0.205370
 5,0.,-0.1124188,0.,-0.3953766,0.,-0.0939442,-0.7762669,0.,-0.2053705,0
 .,-0.1124188,0.,0.3953766,0.,-0.0939442\Polar=29.5920205,0.,8.5023336,
 0.,0.,10.8960156\PG=C02V [C2(O1),SGV(O2)]\NImag=0\\0.50503100,0.,0.000
 15607,0.,0.,0.50199716,-0.25251550,0.,-0.16046793,0.38790658,0.,-0.000
 07803,0.,0.,0.00007706,-0.15042840,0.,-0.25099858,0.15544816,0.,0.1704
 5160,-0.25251550,0.,0.16046793,-0.13539109,0.,-0.00501976,0.38790658,0
 .,-0.00007803,0.,0.,0.00000098,0.,0.,0.00007706,0.15042840,0.,-0.25099
 858,0.00501976,0.,0.08054698,-0.15544816,0.,0.17045160\\0.,0.,0.000001
 95,-0.00001080,0.,-0.00000098,0.00001080,0.,-0.00000098\\\@


 When I told the people of Northern Ireland that I was
 an atheist, a woman in the audience stood up and said,
 "Yes, but is it the God of the Catholics or the God
 of the Protestants in whom you don't believe?"
                               -- Quentin Crisp
 Job cpu time:  0 days  0 hours  0 minutes 26.0 seconds.
 File lengths (MBytes):  RWF=     13 Int=      0 D2E=      0 Chk=     13 Scr=      1
 Normal termination of Gaussian 03 at Sun Mar 18 10:49:51 2012.
46.41user 4.80system 0:51.33elapsed 99%CPU (0avgtext+0avgdata 0maxresident)k
0inputs+0outputs (3major+1559382minor)pagefaults 0swaps
