[Molden Format]
[Atoms] Angs
 O     1  8     0.000000     0.000000    -0.428461
 O     2  8     1.079300     0.000000     0.214230
 O     3  8    -1.079300     0.000000     0.214230
[FREQ]
  746.6118
 1183.0520
 1245.4269
[INT]
    8.3146
  238.9332
    0.0542
[FR-COORD]
 O     0.000000     0.000000    -0.809674
 O     2.039581     0.000000     0.404836
 O    -2.039581     0.000000     0.404836
[FR-NORM-COORD]
vibration     1
    0.000000     0.000000    -0.450000
    0.000000     0.590000     0.230000
    0.000000    -0.590000     0.230000
vibration     2
    0.000000     0.770000     0.000000
    0.000000    -0.390000     0.230000
    0.000000    -0.390000    -0.230000
vibration     3
    0.000000     0.000000     0.680000
    0.000000     0.390000    -0.340000
    0.000000    -0.390000    -0.340000
